
     Program PWSCF v.7.3.1 starts on 26Jun2024 at  5: 3:57 

     This program is part of the open-source Quantum ESPRESSO suite
     for quantum simulation of materials; please cite
         "P. Giannozzi et al., J. Phys.:Condens. Matter 21 395502 (2009);
         "P. Giannozzi et al., J. Phys.:Condens. Matter 29 465901 (2017);
         "P. Giannozzi et al., J. Chem. Phys. 152 154105 (2020);
          URL http://www.quantum-espresso.org", 
     in publications or presentations arising from this work. More details at
     http://www.quantum-espresso.org/quote

     Parallel version (MPI), running on    22 processors

     MPI processes distributed on     1 nodes
     188158 MiB available memory on the printing compute node when the environment starts
 
     Waiting for input...
     Reading input from standard input

     Current dimensions of program PWSCF are:
     Max number of different atomic species (ntypx) = 10
     Max number of k-points (npk) =  40000
     Max angular momentum in pseudopotentials (lmaxx) =  4
     file C.pbe-n-kjpaw_psl.0.1.UPF: wavefunction(s)  2P renormalized
     Message from routine set_cutoff:
     ecutrho < 4*ecutwfc, are you sure?

     Atomic positions and unit cell read from directory:
     ./out/graphene.save/
 
     Message from routine setup:
     using ibrav=0 with symmetry is DISCOURAGED, use correct ibrav instead
 
     R & G space division:  proc/nbgrp/npool/nimage =      22
     Subspace diagonalization in iterative solution of the eigenvalue problem:
     a serial algorithm will be used

 
     Parallelization info
     --------------------
     sticks:   dense  smooth     PW     G-vecs:    dense   smooth      PW
     Min           9       9      3                  941      941     177
     Max          10      10      4                  988      988     196
     Sum         211     211     73                21175    21175    4021
 
     Using Slab Decomposition
 


     bravais-lattice index     =            0
     lattice parameter (alat)  =       4.6487  a.u.
     unit-cell volume          =     707.3387 (a.u.)^3
     number of atoms/cell      =            2
     number of atomic types    =            1
     number of electrons       =         8.00
     number of Kohn-Sham states=           60
     kinetic-energy cutoff     =      37.0000  Ry
     charge density cutoff     =     147.0000  Ry
     Exchange-correlation= SLA  PW   PBX  PBC
                           (   1   4   3   4   0   0   0)

     celldm(1)=   4.648726  celldm(2)=   0.000000  celldm(3)=   0.000000
     celldm(4)=   0.000000  celldm(5)=   0.000000  celldm(6)=   0.000000

     crystal axes: (cart. coord. in units of alat)
               a(1) = (   1.000000   0.000000   0.000000 )  
               a(2) = (  -0.500000   0.866025   0.000000 )  
               a(3) = (   0.000000   0.000000   8.130081 )  

     reciprocal axes: (cart. coord. in units 2 pi/alat)
               b(1) = (  1.000000  0.577350  0.000000 )  
               b(2) = (  0.000000  1.154701  0.000000 )  
               b(3) = (  0.000000  0.000000  0.123000 )  


     PseudoPot. # 1 for C  read from file:
     ../../pseudo/C.pbe-n-kjpaw_psl.0.1.UPF
     MD5 check sum: c849119b86527ef673bbe9c4f1f1b6ab
     Pseudo is Projector augmented-wave + core cor, Zval =  4.0
     Generated using "atomic" code by A. Dal Corso  v.5.0.2 svn rev. 9415
     Shape of augmentation charge: BESSEL
     Using radial grid of 1073 points,  4 beta functions with: 
                l(1) =   0
                l(2) =   0
                l(3) =   1
                l(4) =   1
     Q(r) pseudized with 0 coefficients 


     atomic species   valence    mass     pseudopotential
     C                 4.00    12.01100     C ( 1.00)

     24 Sym. Ops., with inversion, found


                                    s                        frac. trans.

      isym =  1     identity                                     

 cryst.   s( 1) = (     1          0          0      )
                  (     0          1          0      )
                  (     0          0          1      )

 cart.    s( 1) = (  1.0000000  0.0000000  0.0000000 )
                  (  0.0000000  1.0000000  0.0000000 )
                  (  0.0000000  0.0000000  1.0000000 )


      isym =  2     180 deg rotation - cart. axis [0,0,1]        

 cryst.   s( 2) = (    -1          0          0      )
                  (     0         -1          0      )
                  (     0          0          1      )

 cart.    s( 2) = ( -1.0000000  0.0000000  0.0000000 )
                  (  0.0000000 -1.0000000  0.0000000 )
                  (  0.0000000  0.0000000  1.0000000 )


      isym =  3     180 deg rotation - cart. axis [0,1,0]        

 cryst.   s( 3) = (    -1          0          0      )
                  (     1          1          0      )
                  (     0          0         -1      )

 cart.    s( 3) = ( -1.0000000  0.0000000  0.0000000 )
                  (  0.0000000  1.0000000  0.0000000 )
                  (  0.0000000  0.0000000 -1.0000000 )


      isym =  4     180 deg rotation - cart. axis [1,0,0]        

 cryst.   s( 4) = (     1          0          0      )
                  (    -1         -1          0      )
                  (     0          0         -1      )

 cart.    s( 4) = (  1.0000000 -0.0000000  0.0000000 )
                  (  0.0000000 -1.0000000  0.0000000 )
                  (  0.0000000  0.0000000 -1.0000000 )


      isym =  5      60 deg rotation - cryst. axis [0,0,1]       

 cryst.   s( 5) = (     1          1          0      )
                  (    -1          0          0      )
                  (     0          0          1      )

 cart.    s( 5) = (  0.5000000 -0.8660254  0.0000000 )
                  (  0.8660254  0.5000000  0.0000000 )
                  (  0.0000000  0.0000000  1.0000000 )


      isym =  6      60 deg rotation - cryst. axis [0,0,-1]      

 cryst.   s( 6) = (     0         -1          0      )
                  (     1          1          0      )
                  (     0          0          1      )

 cart.    s( 6) = (  0.5000000  0.8660254  0.0000000 )
                  ( -0.8660254  0.5000000  0.0000000 )
                  (  0.0000000  0.0000000  1.0000000 )


      isym =  7     120 deg rotation - cryst. axis [0,0,1]       

 cryst.   s( 7) = (     0          1          0      )
                  (    -1         -1          0      )
                  (     0          0          1      )

 cart.    s( 7) = ( -0.5000000 -0.8660254  0.0000000 )
                  (  0.8660254 -0.5000000  0.0000000 )
                  (  0.0000000  0.0000000  1.0000000 )


      isym =  8     120 deg rotation - cryst. axis [0,0,-1]      

 cryst.   s( 8) = (    -1         -1          0      )
                  (     1          0          0      )
                  (     0          0          1      )

 cart.    s( 8) = ( -0.5000000  0.8660254  0.0000000 )
                  ( -0.8660254 -0.5000000  0.0000000 )
                  (  0.0000000  0.0000000  1.0000000 )


      isym =  9     180 deg rotation - cryst. axis [1,-1,0]      

 cryst.   s( 9) = (     0         -1          0      )
                  (    -1          0          0      )
                  (     0          0         -1      )

 cart.    s( 9) = (  0.5000000 -0.8660254  0.0000000 )
                  ( -0.8660254 -0.5000000  0.0000000 )
                  (  0.0000000  0.0000000 -1.0000000 )


      isym = 10     180 deg rotation - cryst. axis [2,1,0]       

 cryst.   s(10) = (     1          1          0      )
                  (     0         -1          0      )
                  (     0          0         -1      )

 cart.    s(10) = (  0.5000000  0.8660254  0.0000000 )
                  (  0.8660254 -0.5000000  0.0000000 )
                  (  0.0000000  0.0000000 -1.0000000 )


      isym = 11     180 deg rotation - cryst. axis [0,1,0]       

 cryst.   s(11) = (    -1         -1          0      )
                  (     0          1          0      )
                  (     0          0         -1      )

 cart.    s(11) = ( -0.5000000 -0.8660254  0.0000000 )
                  ( -0.8660254  0.5000000  0.0000000 )
                  (  0.0000000  0.0000000 -1.0000000 )


      isym = 12     180 deg rotation - cryst. axis [1,1,0]       

 cryst.   s(12) = (     0          1          0      )
                  (     1          0          0      )
                  (     0          0         -1      )

 cart.    s(12) = ( -0.5000000  0.8660254  0.0000000 )
                  (  0.8660254  0.5000000  0.0000000 )
                  (  0.0000000  0.0000000 -1.0000000 )


      isym = 13     inversion                                    

 cryst.   s(13) = (    -1          0          0      )
                  (     0         -1          0      )
                  (     0          0         -1      )

 cart.    s(13) = ( -1.0000000  0.0000000  0.0000000 )
                  (  0.0000000 -1.0000000  0.0000000 )
                  (  0.0000000  0.0000000 -1.0000000 )


      isym = 14     inv. 180 deg rotation - cart. axis [0,0,1]   

 cryst.   s(14) = (     1          0          0      )
                  (     0          1          0      )
                  (     0          0         -1      )

 cart.    s(14) = (  1.0000000  0.0000000  0.0000000 )
                  (  0.0000000  1.0000000  0.0000000 )
                  (  0.0000000  0.0000000 -1.0000000 )


      isym = 15     inv. 180 deg rotation - cart. axis [0,1,0]   

 cryst.   s(15) = (     1          0          0      )
                  (    -1         -1          0      )
                  (     0          0          1      )

 cart.    s(15) = (  1.0000000 -0.0000000  0.0000000 )
                  (  0.0000000 -1.0000000  0.0000000 )
                  (  0.0000000  0.0000000  1.0000000 )


      isym = 16     inv. 180 deg rotation - cart. axis [1,0,0]   

 cryst.   s(16) = (    -1          0          0      )
                  (     1          1          0      )
                  (     0          0          1      )

 cart.    s(16) = ( -1.0000000  0.0000000  0.0000000 )
                  (  0.0000000  1.0000000  0.0000000 )
                  (  0.0000000  0.0000000  1.0000000 )


      isym = 17     inv.  60 deg rotation - cryst. axis [0,0,1]  

 cryst.   s(17) = (    -1         -1          0      )
                  (     1          0          0      )
                  (     0          0         -1      )

 cart.    s(17) = ( -0.5000000  0.8660254  0.0000000 )
                  ( -0.8660254 -0.5000000  0.0000000 )
                  (  0.0000000  0.0000000 -1.0000000 )


      isym = 18     inv.  60 deg rotation - cryst. axis [0,0,-1] 

 cryst.   s(18) = (     0          1          0      )
                  (    -1         -1          0      )
                  (     0          0         -1      )

 cart.    s(18) = ( -0.5000000 -0.8660254  0.0000000 )
                  (  0.8660254 -0.5000000  0.0000000 )
                  (  0.0000000  0.0000000 -1.0000000 )


      isym = 19     inv. 120 deg rotation - cryst. axis [0,0,1]  

 cryst.   s(19) = (     0         -1          0      )
                  (     1          1          0      )
                  (     0          0         -1      )

 cart.    s(19) = (  0.5000000  0.8660254  0.0000000 )
                  ( -0.8660254  0.5000000  0.0000000 )
                  (  0.0000000  0.0000000 -1.0000000 )


      isym = 20     inv. 120 deg rotation - cryst. axis [0,0,-1] 

 cryst.   s(20) = (     1          1          0      )
                  (    -1          0          0      )
                  (     0          0         -1      )

 cart.    s(20) = (  0.5000000 -0.8660254  0.0000000 )
                  (  0.8660254  0.5000000  0.0000000 )
                  (  0.0000000  0.0000000 -1.0000000 )


      isym = 21     inv. 180 deg rotation - cryst. axis [1,-1,0] 

 cryst.   s(21) = (     0          1          0      )
                  (     1          0          0      )
                  (     0          0          1      )

 cart.    s(21) = ( -0.5000000  0.8660254  0.0000000 )
                  (  0.8660254  0.5000000  0.0000000 )
                  (  0.0000000  0.0000000  1.0000000 )


      isym = 22     inv. 180 deg rotation - cryst. axis [2,1,0]  

 cryst.   s(22) = (    -1         -1          0      )
                  (     0          1          0      )
                  (     0          0          1      )

 cart.    s(22) = ( -0.5000000 -0.8660254  0.0000000 )
                  ( -0.8660254  0.5000000  0.0000000 )
                  (  0.0000000  0.0000000  1.0000000 )


      isym = 23     inv. 180 deg rotation - cryst. axis [0,1,0]  

 cryst.   s(23) = (     1          1          0      )
                  (     0         -1          0      )
                  (     0          0          1      )

 cart.    s(23) = (  0.5000000  0.8660254  0.0000000 )
                  (  0.8660254 -0.5000000  0.0000000 )
                  (  0.0000000  0.0000000  1.0000000 )


      isym = 24     inv. 180 deg rotation - cryst. axis [1,1,0]  

 cryst.   s(24) = (     0         -1          0      )
                  (    -1          0          0      )
                  (     0          0          1      )

 cart.    s(24) = (  0.5000000 -0.8660254  0.0000000 )
                  ( -0.8660254 -0.5000000  0.0000000 )
                  (  0.0000000  0.0000000  1.0000000 )


   Cartesian axes

     site n.     atom                  positions (alat units)
         1        C      tau(   1) = (   0.0000000   0.5773503   0.0000000  )
         2        C      tau(   2) = (   0.5000000   0.2886751   0.0000000  )

   Crystallographic axes

     site n.     atom                  positions (cryst. coord.)
         1        C      tau(   1) = (  0.3333333  0.6666667  0.0000000  )
         2        C      tau(   2) = (  0.6666667  0.3333333  0.0000000  )

     number of k points=   274  Marzari-Vanderbilt smearing, width (Ry)=  0.0100
                       cart. coord. in units 2pi/alat
        k(    1) = (   0.0000000   0.0000000   0.0000000), wk =   0.0072993
        k(    2) = (   0.0050000   0.0028868   0.0000000), wk =   0.0072993
        k(    3) = (   0.0100000   0.0057735   0.0000000), wk =   0.0072993
        k(    4) = (   0.0150000   0.0086603   0.0000000), wk =   0.0072993
        k(    5) = (   0.0200000   0.0115470   0.0000000), wk =   0.0072993
        k(    6) = (   0.0250000   0.0144338   0.0000000), wk =   0.0072993
        k(    7) = (   0.0300000   0.0173205   0.0000000), wk =   0.0072993
        k(    8) = (   0.0350000   0.0202073   0.0000000), wk =   0.0072993
        k(    9) = (   0.0400000   0.0230940   0.0000000), wk =   0.0072993
        k(   10) = (   0.0450000   0.0259808   0.0000000), wk =   0.0072993
        k(   11) = (   0.0500000   0.0288675   0.0000000), wk =   0.0072993
        k(   12) = (   0.0550000   0.0317543   0.0000000), wk =   0.0072993
        k(   13) = (   0.0600000   0.0346410   0.0000000), wk =   0.0072993
        k(   14) = (   0.0650000   0.0375278   0.0000000), wk =   0.0072993
        k(   15) = (   0.0700000   0.0404145   0.0000000), wk =   0.0072993
        k(   16) = (   0.0750000   0.0433013   0.0000000), wk =   0.0072993
        k(   17) = (   0.0800000   0.0461880   0.0000000), wk =   0.0072993
        k(   18) = (   0.0850000   0.0490748   0.0000000), wk =   0.0072993
        k(   19) = (   0.0900000   0.0519615   0.0000000), wk =   0.0072993
        k(   20) = (   0.0950000   0.0548483   0.0000000), wk =   0.0072993
        k(   21) = (   0.1000000   0.0577350   0.0000000), wk =   0.0072993
        k(   22) = (   0.1050000   0.0606218   0.0000000), wk =   0.0072993
        k(   23) = (   0.1100000   0.0635085   0.0000000), wk =   0.0072993
        k(   24) = (   0.1150000   0.0663953   0.0000000), wk =   0.0072993
        k(   25) = (   0.1200000   0.0692820   0.0000000), wk =   0.0072993
        k(   26) = (   0.1250000   0.0721688   0.0000000), wk =   0.0072993
        k(   27) = (   0.1300000   0.0750555   0.0000000), wk =   0.0072993
        k(   28) = (   0.1350000   0.0779423   0.0000000), wk =   0.0072993
        k(   29) = (   0.1400000   0.0808290   0.0000000), wk =   0.0072993
        k(   30) = (   0.1450000   0.0837158   0.0000000), wk =   0.0072993
        k(   31) = (   0.1500000   0.0866025   0.0000000), wk =   0.0072993
        k(   32) = (   0.1550000   0.0894893   0.0000000), wk =   0.0072993
        k(   33) = (   0.1600000   0.0923760   0.0000000), wk =   0.0072993
        k(   34) = (   0.1650000   0.0952628   0.0000000), wk =   0.0072993
        k(   35) = (   0.1700000   0.0981495   0.0000000), wk =   0.0072993
        k(   36) = (   0.1750000   0.1010363   0.0000000), wk =   0.0072993
        k(   37) = (   0.1800000   0.1039230   0.0000000), wk =   0.0072993
        k(   38) = (   0.1850000   0.1068098   0.0000000), wk =   0.0072993
        k(   39) = (   0.1900000   0.1096966   0.0000000), wk =   0.0072993
        k(   40) = (   0.1950000   0.1125833   0.0000000), wk =   0.0072993
        k(   41) = (   0.2000000   0.1154701   0.0000000), wk =   0.0072993
        k(   42) = (   0.2050000   0.1183568   0.0000000), wk =   0.0072993
        k(   43) = (   0.2100000   0.1212436   0.0000000), wk =   0.0072993
        k(   44) = (   0.2150000   0.1241303   0.0000000), wk =   0.0072993
        k(   45) = (   0.2200000   0.1270171   0.0000000), wk =   0.0072993
        k(   46) = (   0.2250000   0.1299038   0.0000000), wk =   0.0072993
        k(   47) = (   0.2300000   0.1327906   0.0000000), wk =   0.0072993
        k(   48) = (   0.2350000   0.1356773   0.0000000), wk =   0.0072993
        k(   49) = (   0.2400000   0.1385641   0.0000000), wk =   0.0072993
        k(   50) = (   0.2450000   0.1414508   0.0000000), wk =   0.0072993
        k(   51) = (   0.2500000   0.1443376   0.0000000), wk =   0.0072993
        k(   52) = (   0.2550000   0.1472243   0.0000000), wk =   0.0072993
        k(   53) = (   0.2600000   0.1501111   0.0000000), wk =   0.0072993
        k(   54) = (   0.2650000   0.1529978   0.0000000), wk =   0.0072993
        k(   55) = (   0.2700000   0.1558846   0.0000000), wk =   0.0072993
        k(   56) = (   0.2750000   0.1587713   0.0000000), wk =   0.0072993
        k(   57) = (   0.2800000   0.1616581   0.0000000), wk =   0.0072993
        k(   58) = (   0.2850000   0.1645448   0.0000000), wk =   0.0072993
        k(   59) = (   0.2900000   0.1674316   0.0000000), wk =   0.0072993
        k(   60) = (   0.2950000   0.1703183   0.0000000), wk =   0.0072993
        k(   61) = (   0.3000000   0.1732051   0.0000000), wk =   0.0072993
        k(   62) = (   0.3050000   0.1760918   0.0000000), wk =   0.0072993
        k(   63) = (   0.3100000   0.1789786   0.0000000), wk =   0.0072993
        k(   64) = (   0.3150000   0.1818653   0.0000000), wk =   0.0072993
        k(   65) = (   0.3200000   0.1847521   0.0000000), wk =   0.0072993
        k(   66) = (   0.3250000   0.1876388   0.0000000), wk =   0.0072993
        k(   67) = (   0.3300000   0.1905256   0.0000000), wk =   0.0072993
        k(   68) = (   0.3350000   0.1934123   0.0000000), wk =   0.0072993
        k(   69) = (   0.3400000   0.1962991   0.0000000), wk =   0.0072993
        k(   70) = (   0.3450000   0.1991858   0.0000000), wk =   0.0072993
        k(   71) = (   0.3500000   0.2020726   0.0000000), wk =   0.0072993
        k(   72) = (   0.3550000   0.2049593   0.0000000), wk =   0.0072993
        k(   73) = (   0.3600000   0.2078461   0.0000000), wk =   0.0072993
        k(   74) = (   0.3650000   0.2107328   0.0000000), wk =   0.0072993
        k(   75) = (   0.3700000   0.2136196   0.0000000), wk =   0.0072993
        k(   76) = (   0.3750000   0.2165064   0.0000000), wk =   0.0072993
        k(   77) = (   0.3800000   0.2193931   0.0000000), wk =   0.0072993
        k(   78) = (   0.3850000   0.2222799   0.0000000), wk =   0.0072993
        k(   79) = (   0.3900000   0.2251666   0.0000000), wk =   0.0072993
        k(   80) = (   0.3950000   0.2280534   0.0000000), wk =   0.0072993
        k(   81) = (   0.4000000   0.2309401   0.0000000), wk =   0.0072993
        k(   82) = (   0.4050000   0.2338269   0.0000000), wk =   0.0072993
        k(   83) = (   0.4100000   0.2367136   0.0000000), wk =   0.0072993
        k(   84) = (   0.4150000   0.2396004   0.0000000), wk =   0.0072993
        k(   85) = (   0.4200000   0.2424871   0.0000000), wk =   0.0072993
        k(   86) = (   0.4250000   0.2453739   0.0000000), wk =   0.0072993
        k(   87) = (   0.4300000   0.2482606   0.0000000), wk =   0.0072993
        k(   88) = (   0.4350000   0.2511474   0.0000000), wk =   0.0072993
        k(   89) = (   0.4400000   0.2540341   0.0000000), wk =   0.0072993
        k(   90) = (   0.4450000   0.2569209   0.0000000), wk =   0.0072993
        k(   91) = (   0.4500000   0.2598076   0.0000000), wk =   0.0072993
        k(   92) = (   0.4550000   0.2626944   0.0000000), wk =   0.0072993
        k(   93) = (   0.4600000   0.2655811   0.0000000), wk =   0.0072993
        k(   94) = (   0.4650000   0.2684679   0.0000000), wk =   0.0072993
        k(   95) = (   0.4700000   0.2713546   0.0000000), wk =   0.0072993
        k(   96) = (   0.4750000   0.2742414   0.0000000), wk =   0.0072993
        k(   97) = (   0.4800000   0.2771281   0.0000000), wk =   0.0072993
        k(   98) = (   0.4850000   0.2800149   0.0000000), wk =   0.0072993
        k(   99) = (   0.4900000   0.2829016   0.0000000), wk =   0.0072993
        k(  100) = (   0.4950000   0.2857884   0.0000000), wk =   0.0072993
        k(  101) = (   0.5000000   0.2886751   0.0000000), wk =   0.0072993
        k(  102) = (   0.4971260   0.2936519   0.0000000), wk =   0.0072993
        k(  103) = (   0.4942530   0.2986292   0.0000000), wk =   0.0072993
        k(  104) = (   0.4913790   0.3036060   0.0000000), wk =   0.0072993
        k(  105) = (   0.4885060   0.3085845   0.0000000), wk =   0.0072993
        k(  106) = (   0.4856320   0.3135612   0.0000000), wk =   0.0072993
        k(  107) = (   0.4827590   0.3185386   0.0000000), wk =   0.0072993
        k(  108) = (   0.4798850   0.3235153   0.0000000), wk =   0.0072993
        k(  109) = (   0.4770110   0.3284921   0.0000000), wk =   0.0072993
        k(  110) = (   0.4741380   0.3334694   0.0000000), wk =   0.0072993
        k(  111) = (   0.4712640   0.3384462   0.0000000), wk =   0.0072993
        k(  112) = (   0.4683910   0.3434235   0.0000000), wk =   0.0072993
        k(  113) = (   0.4655170   0.3484014   0.0000000), wk =   0.0072993
        k(  114) = (   0.4626440   0.3533788   0.0000000), wk =   0.0072993
        k(  115) = (   0.4597700   0.3583555   0.0000000), wk =   0.0072993
        k(  116) = (   0.4568970   0.3633329   0.0000000), wk =   0.0072993
        k(  117) = (   0.4540230   0.3683096   0.0000000), wk =   0.0072993
        k(  118) = (   0.4511490   0.3732864   0.0000000), wk =   0.0072993
        k(  119) = (   0.4482760   0.3782637   0.0000000), wk =   0.0072993
        k(  120) = (   0.4454020   0.3832405   0.0000000), wk =   0.0072993
        k(  121) = (   0.4425290   0.3882190   0.0000000), wk =   0.0072993
        k(  122) = (   0.4396550   0.3931957   0.0000000), wk =   0.0072993
        k(  123) = (   0.4367820   0.3981731   0.0000000), wk =   0.0072993
        k(  124) = (   0.4339080   0.4031498   0.0000000), wk =   0.0072993
        k(  125) = (   0.4310340   0.4081266   0.0000000), wk =   0.0072993
        k(  126) = (   0.4281610   0.4131039   0.0000000), wk =   0.0072993
        k(  127) = (   0.4252870   0.4180807   0.0000000), wk =   0.0072993
        k(  128) = (   0.4224140   0.4230580   0.0000000), wk =   0.0072993
        k(  129) = (   0.4195400   0.4280359   0.0000000), wk =   0.0072993
        k(  130) = (   0.4166670   0.4330133   0.0000000), wk =   0.0072993
        k(  131) = (   0.4137930   0.4379900   0.0000000), wk =   0.0072993
        k(  132) = (   0.4109200   0.4429674   0.0000000), wk =   0.0072993
        k(  133) = (   0.4080460   0.4479441   0.0000000), wk =   0.0072993
        k(  134) = (   0.4051720   0.4529209   0.0000000), wk =   0.0072993
        k(  135) = (   0.4022990   0.4578982   0.0000000), wk =   0.0072993
        k(  136) = (   0.3994250   0.4628750   0.0000000), wk =   0.0072993
        k(  137) = (   0.3965520   0.4678535   0.0000000), wk =   0.0072993
        k(  138) = (   0.3936780   0.4728302   0.0000000), wk =   0.0072993
        k(  139) = (   0.3908050   0.4778076   0.0000000), wk =   0.0072993
        k(  140) = (   0.3879310   0.4827843   0.0000000), wk =   0.0072993
        k(  141) = (   0.3850570   0.4877611   0.0000000), wk =   0.0072993
        k(  142) = (   0.3821840   0.4927384   0.0000000), wk =   0.0072993
        k(  143) = (   0.3793100   0.4977152   0.0000000), wk =   0.0072993
        k(  144) = (   0.3764370   0.5026925   0.0000000), wk =   0.0072993
        k(  145) = (   0.3735630   0.5076704   0.0000000), wk =   0.0072993
        k(  146) = (   0.3706900   0.5126478   0.0000000), wk =   0.0072993
        k(  147) = (   0.3678160   0.5176245   0.0000000), wk =   0.0072993
        k(  148) = (   0.3649430   0.5226019   0.0000000), wk =   0.0072993
        k(  149) = (   0.3620690   0.5275786   0.0000000), wk =   0.0072993
        k(  150) = (   0.3591950   0.5325554   0.0000000), wk =   0.0072993
        k(  151) = (   0.3563220   0.5375327   0.0000000), wk =   0.0072993
        k(  152) = (   0.3534480   0.5425095   0.0000000), wk =   0.0072993
        k(  153) = (   0.3505750   0.5474880   0.0000000), wk =   0.0072993
        k(  154) = (   0.3477010   0.5524647   0.0000000), wk =   0.0072993
        k(  155) = (   0.3448280   0.5574421   0.0000000), wk =   0.0072993
        k(  156) = (   0.3419540   0.5624188   0.0000000), wk =   0.0072993
        k(  157) = (   0.3390800   0.5673956   0.0000000), wk =   0.0072993
        k(  158) = (   0.3362070   0.5723729   0.0000000), wk =   0.0072993
        k(  159) = (   0.3333330   0.5773497   0.0000000), wk =   0.0072993
        k(  160) = (   0.3304350   0.5723302   0.0000000), wk =   0.0072993
        k(  161) = (   0.3275360   0.5673090   0.0000000), wk =   0.0072993
        k(  162) = (   0.3246380   0.5622895   0.0000000), wk =   0.0072993
        k(  163) = (   0.3217390   0.5572683   0.0000000), wk =   0.0072993
        k(  164) = (   0.3188410   0.5522488   0.0000000), wk =   0.0072993
        k(  165) = (   0.3159420   0.5472276   0.0000000), wk =   0.0072993
        k(  166) = (   0.3130430   0.5422064   0.0000000), wk =   0.0072993
        k(  167) = (   0.3101450   0.5371869   0.0000000), wk =   0.0072993
        k(  168) = (   0.3072460   0.5321657   0.0000000), wk =   0.0072993
        k(  169) = (   0.3043480   0.5271462   0.0000000), wk =   0.0072993
        k(  170) = (   0.3014490   0.5221250   0.0000000), wk =   0.0072993
        k(  171) = (   0.2985510   0.5171055   0.0000000), wk =   0.0072993
        k(  172) = (   0.2956520   0.5120843   0.0000000), wk =   0.0072993
        k(  173) = (   0.2927540   0.5070648   0.0000000), wk =   0.0072993
        k(  174) = (   0.2898550   0.5020436   0.0000000), wk =   0.0072993
        k(  175) = (   0.2869570   0.4970241   0.0000000), wk =   0.0072993
        k(  176) = (   0.2840580   0.4920029   0.0000000), wk =   0.0072993
        k(  177) = (   0.2811590   0.4869817   0.0000000), wk =   0.0072993
        k(  178) = (   0.2782610   0.4819622   0.0000000), wk =   0.0072993
        k(  179) = (   0.2753620   0.4769410   0.0000000), wk =   0.0072993
        k(  180) = (   0.2724640   0.4719215   0.0000000), wk =   0.0072993
        k(  181) = (   0.2695650   0.4669003   0.0000000), wk =   0.0072993
        k(  182) = (   0.2666670   0.4618808   0.0000000), wk =   0.0072993
        k(  183) = (   0.2637680   0.4568596   0.0000000), wk =   0.0072993
        k(  184) = (   0.2608700   0.4518401   0.0000000), wk =   0.0072993
        k(  185) = (   0.2579710   0.4468189   0.0000000), wk =   0.0072993
        k(  186) = (   0.2550720   0.4417977   0.0000000), wk =   0.0072993
        k(  187) = (   0.2521740   0.4367782   0.0000000), wk =   0.0072993
        k(  188) = (   0.2492750   0.4317570   0.0000000), wk =   0.0072993
        k(  189) = (   0.2463770   0.4267375   0.0000000), wk =   0.0072993
        k(  190) = (   0.2434780   0.4217163   0.0000000), wk =   0.0072993
        k(  191) = (   0.2405800   0.4166968   0.0000000), wk =   0.0072993
        k(  192) = (   0.2376810   0.4116756   0.0000000), wk =   0.0072993
        k(  193) = (   0.2347830   0.4066561   0.0000000), wk =   0.0072993
        k(  194) = (   0.2318840   0.4016349   0.0000000), wk =   0.0072993
        k(  195) = (   0.2289860   0.3966154   0.0000000), wk =   0.0072993
        k(  196) = (   0.2260870   0.3915942   0.0000000), wk =   0.0072993
        k(  197) = (   0.2231880   0.3865730   0.0000000), wk =   0.0072993
        k(  198) = (   0.2202900   0.3815535   0.0000000), wk =   0.0072993
        k(  199) = (   0.2173910   0.3765323   0.0000000), wk =   0.0072993
        k(  200) = (   0.2144930   0.3715128   0.0000000), wk =   0.0072993
        k(  201) = (   0.2115940   0.3664916   0.0000000), wk =   0.0072993
        k(  202) = (   0.2086960   0.3614721   0.0000000), wk =   0.0072993
        k(  203) = (   0.2057970   0.3564509   0.0000000), wk =   0.0072993
        k(  204) = (   0.2028990   0.3514314   0.0000000), wk =   0.0072993
        k(  205) = (   0.2000000   0.3464102   0.0000000), wk =   0.0072993
        k(  206) = (   0.1971010   0.3413889   0.0000000), wk =   0.0072993
        k(  207) = (   0.1942030   0.3363695   0.0000000), wk =   0.0072993
        k(  208) = (   0.1913040   0.3313482   0.0000000), wk =   0.0072993
        k(  209) = (   0.1884060   0.3263288   0.0000000), wk =   0.0072993
        k(  210) = (   0.1855070   0.3213075   0.0000000), wk =   0.0072993
        k(  211) = (   0.1826090   0.3162881   0.0000000), wk =   0.0072993
        k(  212) = (   0.1797100   0.3112669   0.0000000), wk =   0.0072993
        k(  213) = (   0.1768120   0.3062474   0.0000000), wk =   0.0072993
        k(  214) = (   0.1739130   0.3012262   0.0000000), wk =   0.0072993
        k(  215) = (   0.1710140   0.2962049   0.0000000), wk =   0.0072993
        k(  216) = (   0.1681160   0.2911855   0.0000000), wk =   0.0072993
        k(  217) = (   0.1652170   0.2861642   0.0000000), wk =   0.0072993
        k(  218) = (   0.1623190   0.2811448   0.0000000), wk =   0.0072993
        k(  219) = (   0.1594200   0.2761235   0.0000000), wk =   0.0072993
        k(  220) = (   0.1565220   0.2711041   0.0000000), wk =   0.0072993
        k(  221) = (   0.1536230   0.2660828   0.0000000), wk =   0.0072993
        k(  222) = (   0.1507250   0.2610634   0.0000000), wk =   0.0072993
        k(  223) = (   0.1478260   0.2560421   0.0000000), wk =   0.0072993
        k(  224) = (   0.1449280   0.2510227   0.0000000), wk =   0.0072993
        k(  225) = (   0.1420290   0.2460014   0.0000000), wk =   0.0072993
        k(  226) = (   0.1391300   0.2409802   0.0000000), wk =   0.0072993
        k(  227) = (   0.1362320   0.2359607   0.0000000), wk =   0.0072993
        k(  228) = (   0.1333330   0.2309395   0.0000000), wk =   0.0072993
        k(  229) = (   0.1304350   0.2259200   0.0000000), wk =   0.0072993
        k(  230) = (   0.1275360   0.2208988   0.0000000), wk =   0.0072993
        k(  231) = (   0.1246380   0.2158793   0.0000000), wk =   0.0072993
        k(  232) = (   0.1217390   0.2108581   0.0000000), wk =   0.0072993
        k(  233) = (   0.1188410   0.2058387   0.0000000), wk =   0.0072993
        k(  234) = (   0.1159420   0.2008174   0.0000000), wk =   0.0072993
        k(  235) = (   0.1130430   0.1957962   0.0000000), wk =   0.0072993
        k(  236) = (   0.1101450   0.1907767   0.0000000), wk =   0.0072993
        k(  237) = (   0.1072460   0.1857555   0.0000000), wk =   0.0072993
        k(  238) = (   0.1043480   0.1807360   0.0000000), wk =   0.0072993
        k(  239) = (   0.1014490   0.1757148   0.0000000), wk =   0.0072993
        k(  240) = (   0.0985510   0.1706953   0.0000000), wk =   0.0072993
        k(  241) = (   0.0956520   0.1656741   0.0000000), wk =   0.0072993
        k(  242) = (   0.0927540   0.1606546   0.0000000), wk =   0.0072993
        k(  243) = (   0.0898550   0.1556334   0.0000000), wk =   0.0072993
        k(  244) = (   0.0869570   0.1506139   0.0000000), wk =   0.0072993
        k(  245) = (   0.0840580   0.1455927   0.0000000), wk =   0.0072993
        k(  246) = (   0.0811590   0.1405715   0.0000000), wk =   0.0072993
        k(  247) = (   0.0782610   0.1355520   0.0000000), wk =   0.0072993
        k(  248) = (   0.0753620   0.1305308   0.0000000), wk =   0.0072993
        k(  249) = (   0.0724640   0.1255113   0.0000000), wk =   0.0072993
        k(  250) = (   0.0695650   0.1204901   0.0000000), wk =   0.0072993
        k(  251) = (   0.0666670   0.1154706   0.0000000), wk =   0.0072993
        k(  252) = (   0.0637680   0.1104494   0.0000000), wk =   0.0072993
        k(  253) = (   0.0608700   0.1054299   0.0000000), wk =   0.0072993
        k(  254) = (   0.0579710   0.1004087   0.0000000), wk =   0.0072993
        k(  255) = (   0.0550720   0.0953875   0.0000000), wk =   0.0072993
        k(  256) = (   0.0521740   0.0903680   0.0000000), wk =   0.0072993
        k(  257) = (   0.0492750   0.0853468   0.0000000), wk =   0.0072993
        k(  258) = (   0.0463770   0.0803273   0.0000000), wk =   0.0072993
        k(  259) = (   0.0434780   0.0753061   0.0000000), wk =   0.0072993
        k(  260) = (   0.0405800   0.0702866   0.0000000), wk =   0.0072993
        k(  261) = (   0.0376810   0.0652654   0.0000000), wk =   0.0072993
        k(  262) = (   0.0347830   0.0602459   0.0000000), wk =   0.0072993
        k(  263) = (   0.0318840   0.0552247   0.0000000), wk =   0.0072993
        k(  264) = (   0.0289860   0.0502052   0.0000000), wk =   0.0072993
        k(  265) = (   0.0260870   0.0451840   0.0000000), wk =   0.0072993
        k(  266) = (   0.0231880   0.0401628   0.0000000), wk =   0.0072993
        k(  267) = (   0.0202900   0.0351433   0.0000000), wk =   0.0072993
        k(  268) = (   0.0173910   0.0301221   0.0000000), wk =   0.0072993
        k(  269) = (   0.0144930   0.0251026   0.0000000), wk =   0.0072993
        k(  270) = (   0.0115940   0.0200814   0.0000000), wk =   0.0072993
        k(  271) = (   0.0086960   0.0150619   0.0000000), wk =   0.0072993
        k(  272) = (   0.0057970   0.0100407   0.0000000), wk =   0.0072993
        k(  273) = (   0.0028990   0.0050212   0.0000000), wk =   0.0072993
        k(  274) = (   0.0000000   0.0000000   0.0000000), wk =   0.0072993

                       cryst. coord.
        k(    1) = (   0.0000000   0.0000000   0.0000000), wk =   0.0072993
        k(    2) = (   0.0050000   0.0000000   0.0000000), wk =   0.0072993
        k(    3) = (   0.0100000   0.0000000   0.0000000), wk =   0.0072993
        k(    4) = (   0.0150000   0.0000000   0.0000000), wk =   0.0072993
        k(    5) = (   0.0200000   0.0000000   0.0000000), wk =   0.0072993
        k(    6) = (   0.0250000   0.0000000   0.0000000), wk =   0.0072993
        k(    7) = (   0.0300000   0.0000000   0.0000000), wk =   0.0072993
        k(    8) = (   0.0350000   0.0000000   0.0000000), wk =   0.0072993
        k(    9) = (   0.0400000   0.0000000   0.0000000), wk =   0.0072993
        k(   10) = (   0.0450000   0.0000000   0.0000000), wk =   0.0072993
        k(   11) = (   0.0500000   0.0000000   0.0000000), wk =   0.0072993
        k(   12) = (   0.0550000   0.0000000   0.0000000), wk =   0.0072993
        k(   13) = (   0.0600000   0.0000000   0.0000000), wk =   0.0072993
        k(   14) = (   0.0650000   0.0000000   0.0000000), wk =   0.0072993
        k(   15) = (   0.0700000   0.0000000   0.0000000), wk =   0.0072993
        k(   16) = (   0.0750000   0.0000000   0.0000000), wk =   0.0072993
        k(   17) = (   0.0800000   0.0000000   0.0000000), wk =   0.0072993
        k(   18) = (   0.0850000   0.0000000   0.0000000), wk =   0.0072993
        k(   19) = (   0.0900000   0.0000000   0.0000000), wk =   0.0072993
        k(   20) = (   0.0950000   0.0000000   0.0000000), wk =   0.0072993
        k(   21) = (   0.1000000   0.0000000   0.0000000), wk =   0.0072993
        k(   22) = (   0.1050000   0.0000000   0.0000000), wk =   0.0072993
        k(   23) = (   0.1100000   0.0000000   0.0000000), wk =   0.0072993
        k(   24) = (   0.1150000   0.0000000   0.0000000), wk =   0.0072993
        k(   25) = (   0.1200000   0.0000000   0.0000000), wk =   0.0072993
        k(   26) = (   0.1250000   0.0000000   0.0000000), wk =   0.0072993
        k(   27) = (   0.1300000   0.0000000   0.0000000), wk =   0.0072993
        k(   28) = (   0.1350000   0.0000000   0.0000000), wk =   0.0072993
        k(   29) = (   0.1400000   0.0000000   0.0000000), wk =   0.0072993
        k(   30) = (   0.1450000   0.0000000   0.0000000), wk =   0.0072993
        k(   31) = (   0.1500000   0.0000000   0.0000000), wk =   0.0072993
        k(   32) = (   0.1550000   0.0000000   0.0000000), wk =   0.0072993
        k(   33) = (   0.1600000   0.0000000   0.0000000), wk =   0.0072993
        k(   34) = (   0.1650000   0.0000000   0.0000000), wk =   0.0072993
        k(   35) = (   0.1700000   0.0000000   0.0000000), wk =   0.0072993
        k(   36) = (   0.1750000   0.0000000   0.0000000), wk =   0.0072993
        k(   37) = (   0.1800000   0.0000000   0.0000000), wk =   0.0072993
        k(   38) = (   0.1850000   0.0000000   0.0000000), wk =   0.0072993
        k(   39) = (   0.1900000   0.0000000   0.0000000), wk =   0.0072993
        k(   40) = (   0.1950000   0.0000000   0.0000000), wk =   0.0072993
        k(   41) = (   0.2000000   0.0000000   0.0000000), wk =   0.0072993
        k(   42) = (   0.2050000  -0.0000000   0.0000000), wk =   0.0072993
        k(   43) = (   0.2100000   0.0000000   0.0000000), wk =   0.0072993
        k(   44) = (   0.2150000   0.0000000   0.0000000), wk =   0.0072993
        k(   45) = (   0.2200000   0.0000000   0.0000000), wk =   0.0072993
        k(   46) = (   0.2250000   0.0000000   0.0000000), wk =   0.0072993
        k(   47) = (   0.2300000   0.0000000   0.0000000), wk =   0.0072993
        k(   48) = (   0.2350000  -0.0000000   0.0000000), wk =   0.0072993
        k(   49) = (   0.2400000   0.0000000   0.0000000), wk =   0.0072993
        k(   50) = (   0.2450000   0.0000000   0.0000000), wk =   0.0072993
        k(   51) = (   0.2500000   0.0000000   0.0000000), wk =   0.0072993
        k(   52) = (   0.2550000   0.0000000   0.0000000), wk =   0.0072993
        k(   53) = (   0.2600000   0.0000000   0.0000000), wk =   0.0072993
        k(   54) = (   0.2650000   0.0000000   0.0000000), wk =   0.0072993
        k(   55) = (   0.2700000   0.0000000   0.0000000), wk =   0.0072993
        k(   56) = (   0.2750000   0.0000000   0.0000000), wk =   0.0072993
        k(   57) = (   0.2800000   0.0000000   0.0000000), wk =   0.0072993
        k(   58) = (   0.2850000   0.0000000   0.0000000), wk =   0.0072993
        k(   59) = (   0.2900000   0.0000000   0.0000000), wk =   0.0072993
        k(   60) = (   0.2950000   0.0000000   0.0000000), wk =   0.0072993
        k(   61) = (   0.3000000   0.0000000   0.0000000), wk =   0.0072993
        k(   62) = (   0.3050000   0.0000000   0.0000000), wk =   0.0072993
        k(   63) = (   0.3100000   0.0000000   0.0000000), wk =   0.0072993
        k(   64) = (   0.3150000   0.0000000   0.0000000), wk =   0.0072993
        k(   65) = (   0.3200000   0.0000000   0.0000000), wk =   0.0072993
        k(   66) = (   0.3250000   0.0000000   0.0000000), wk =   0.0072993
        k(   67) = (   0.3300000   0.0000000   0.0000000), wk =   0.0072993
        k(   68) = (   0.3350000   0.0000000   0.0000000), wk =   0.0072993
        k(   69) = (   0.3400000   0.0000000   0.0000000), wk =   0.0072993
        k(   70) = (   0.3450000   0.0000000   0.0000000), wk =   0.0072993
        k(   71) = (   0.3500000   0.0000000   0.0000000), wk =   0.0072993
        k(   72) = (   0.3550000   0.0000000   0.0000000), wk =   0.0072993
        k(   73) = (   0.3600000   0.0000000   0.0000000), wk =   0.0072993
        k(   74) = (   0.3650000   0.0000000   0.0000000), wk =   0.0072993
        k(   75) = (   0.3700000   0.0000000   0.0000000), wk =   0.0072993
        k(   76) = (   0.3750000   0.0000000   0.0000000), wk =   0.0072993
        k(   77) = (   0.3800000   0.0000000   0.0000000), wk =   0.0072993
        k(   78) = (   0.3850000   0.0000000   0.0000000), wk =   0.0072993
        k(   79) = (   0.3900000   0.0000000   0.0000000), wk =   0.0072993
        k(   80) = (   0.3950000   0.0000000   0.0000000), wk =   0.0072993
        k(   81) = (   0.4000000   0.0000000   0.0000000), wk =   0.0072993
        k(   82) = (   0.4050000   0.0000000   0.0000000), wk =   0.0072993
        k(   83) = (   0.4100000  -0.0000000   0.0000000), wk =   0.0072993
        k(   84) = (   0.4150000   0.0000000   0.0000000), wk =   0.0072993
        k(   85) = (   0.4200000   0.0000000   0.0000000), wk =   0.0072993
        k(   86) = (   0.4250000  -0.0000000   0.0000000), wk =   0.0072993
        k(   87) = (   0.4300000   0.0000000   0.0000000), wk =   0.0072993
        k(   88) = (   0.4350000   0.0000000   0.0000000), wk =   0.0072993
        k(   89) = (   0.4400000   0.0000000   0.0000000), wk =   0.0072993
        k(   90) = (   0.4450000   0.0000000   0.0000000), wk =   0.0072993
        k(   91) = (   0.4500000   0.0000000   0.0000000), wk =   0.0072993
        k(   92) = (   0.4550000   0.0000000   0.0000000), wk =   0.0072993
        k(   93) = (   0.4600000   0.0000000   0.0000000), wk =   0.0072993
        k(   94) = (   0.4650000   0.0000000   0.0000000), wk =   0.0072993
        k(   95) = (   0.4700000  -0.0000000   0.0000000), wk =   0.0072993
        k(   96) = (   0.4750000   0.0000000   0.0000000), wk =   0.0072993
        k(   97) = (   0.4800000   0.0000000   0.0000000), wk =   0.0072993
        k(   98) = (   0.4850000   0.0000000   0.0000000), wk =   0.0072993
        k(   99) = (   0.4900000   0.0000000   0.0000000), wk =   0.0072993
        k(  100) = (   0.4950000   0.0000000   0.0000000), wk =   0.0072993
        k(  101) = (   0.5000000   0.0000000   0.0000000), wk =   0.0072993
        k(  102) = (   0.4971260   0.0057470   0.0000000), wk =   0.0072993
        k(  103) = (   0.4942530   0.0114940   0.0000000), wk =   0.0072993
        k(  104) = (   0.4913790   0.0172410   0.0000000), wk =   0.0072993
        k(  105) = (   0.4885060   0.0229890   0.0000000), wk =   0.0072993
        k(  106) = (   0.4856320   0.0287360   0.0000000), wk =   0.0072993
        k(  107) = (   0.4827590   0.0344830   0.0000000), wk =   0.0072993
        k(  108) = (   0.4798850   0.0402300   0.0000000), wk =   0.0072993
        k(  109) = (   0.4770110   0.0459770   0.0000000), wk =   0.0072993
        k(  110) = (   0.4741380   0.0517240   0.0000000), wk =   0.0072993
        k(  111) = (   0.4712640   0.0574710   0.0000000), wk =   0.0072993
        k(  112) = (   0.4683910   0.0632180   0.0000000), wk =   0.0072993
        k(  113) = (   0.4655170   0.0689660   0.0000000), wk =   0.0072993
        k(  114) = (   0.4626440   0.0747130   0.0000000), wk =   0.0072993
        k(  115) = (   0.4597700   0.0804600   0.0000000), wk =   0.0072993
        k(  116) = (   0.4568970   0.0862070   0.0000000), wk =   0.0072993
        k(  117) = (   0.4540230   0.0919540   0.0000000), wk =   0.0072993
        k(  118) = (   0.4511490   0.0977010   0.0000000), wk =   0.0072993
        k(  119) = (   0.4482760   0.1034480   0.0000000), wk =   0.0072993
        k(  120) = (   0.4454020   0.1091950   0.0000000), wk =   0.0072993
        k(  121) = (   0.4425290   0.1149430   0.0000000), wk =   0.0072993
        k(  122) = (   0.4396550   0.1206900   0.0000000), wk =   0.0072993
        k(  123) = (   0.4367820   0.1264370   0.0000000), wk =   0.0072993
        k(  124) = (   0.4339080   0.1321840   0.0000000), wk =   0.0072993
        k(  125) = (   0.4310340   0.1379310   0.0000000), wk =   0.0072993
        k(  126) = (   0.4281610   0.1436780   0.0000000), wk =   0.0072993
        k(  127) = (   0.4252870   0.1494250   0.0000000), wk =   0.0072993
        k(  128) = (   0.4224140   0.1551720   0.0000000), wk =   0.0072993
        k(  129) = (   0.4195400   0.1609200   0.0000000), wk =   0.0072993
        k(  130) = (   0.4166670   0.1666670   0.0000000), wk =   0.0072993
        k(  131) = (   0.4137930   0.1724140   0.0000000), wk =   0.0072993
        k(  132) = (   0.4109200   0.1781610   0.0000000), wk =   0.0072993
        k(  133) = (   0.4080460   0.1839080   0.0000000), wk =   0.0072993
        k(  134) = (   0.4051720   0.1896550   0.0000000), wk =   0.0072993
        k(  135) = (   0.4022990   0.1954020   0.0000000), wk =   0.0072993
        k(  136) = (   0.3994250   0.2011490   0.0000000), wk =   0.0072993
        k(  137) = (   0.3965520   0.2068970   0.0000000), wk =   0.0072993
        k(  138) = (   0.3936780   0.2126440   0.0000000), wk =   0.0072993
        k(  139) = (   0.3908050   0.2183910   0.0000000), wk =   0.0072993
        k(  140) = (   0.3879310   0.2241380   0.0000000), wk =   0.0072993
        k(  141) = (   0.3850570   0.2298850   0.0000000), wk =   0.0072993
        k(  142) = (   0.3821840   0.2356320   0.0000000), wk =   0.0072993
        k(  143) = (   0.3793100   0.2413790   0.0000000), wk =   0.0072993
        k(  144) = (   0.3764370   0.2471260   0.0000000), wk =   0.0072993
        k(  145) = (   0.3735630   0.2528740   0.0000000), wk =   0.0072993
        k(  146) = (   0.3706900   0.2586210   0.0000000), wk =   0.0072993
        k(  147) = (   0.3678160   0.2643680   0.0000000), wk =   0.0072993
        k(  148) = (   0.3649430   0.2701150   0.0000000), wk =   0.0072993
        k(  149) = (   0.3620690   0.2758620   0.0000000), wk =   0.0072993
        k(  150) = (   0.3591950   0.2816090   0.0000000), wk =   0.0072993
        k(  151) = (   0.3563220   0.2873560   0.0000000), wk =   0.0072993
        k(  152) = (   0.3534480   0.2931030   0.0000000), wk =   0.0072993
        k(  153) = (   0.3505750   0.2988510   0.0000000), wk =   0.0072993
        k(  154) = (   0.3477010   0.3045980   0.0000000), wk =   0.0072993
        k(  155) = (   0.3448280   0.3103450   0.0000000), wk =   0.0072993
        k(  156) = (   0.3419540   0.3160920   0.0000000), wk =   0.0072993
        k(  157) = (   0.3390800   0.3218390   0.0000000), wk =   0.0072993
        k(  158) = (   0.3362070   0.3275860   0.0000000), wk =   0.0072993
        k(  159) = (   0.3333330   0.3333330   0.0000000), wk =   0.0072993
        k(  160) = (   0.3304350   0.3304350   0.0000000), wk =   0.0072993
        k(  161) = (   0.3275360   0.3275360   0.0000000), wk =   0.0072993
        k(  162) = (   0.3246380   0.3246380   0.0000000), wk =   0.0072993
        k(  163) = (   0.3217390   0.3217390   0.0000000), wk =   0.0072993
        k(  164) = (   0.3188410   0.3188410   0.0000000), wk =   0.0072993
        k(  165) = (   0.3159420   0.3159420   0.0000000), wk =   0.0072993
        k(  166) = (   0.3130430   0.3130430   0.0000000), wk =   0.0072993
        k(  167) = (   0.3101450   0.3101450   0.0000000), wk =   0.0072993
        k(  168) = (   0.3072460   0.3072460   0.0000000), wk =   0.0072993
        k(  169) = (   0.3043480   0.3043480   0.0000000), wk =   0.0072993
        k(  170) = (   0.3014490   0.3014490   0.0000000), wk =   0.0072993
        k(  171) = (   0.2985510   0.2985510   0.0000000), wk =   0.0072993
        k(  172) = (   0.2956520   0.2956520   0.0000000), wk =   0.0072993
        k(  173) = (   0.2927540   0.2927540   0.0000000), wk =   0.0072993
        k(  174) = (   0.2898550   0.2898550   0.0000000), wk =   0.0072993
        k(  175) = (   0.2869570   0.2869570   0.0000000), wk =   0.0072993
        k(  176) = (   0.2840580   0.2840580   0.0000000), wk =   0.0072993
        k(  177) = (   0.2811590   0.2811590   0.0000000), wk =   0.0072993
        k(  178) = (   0.2782610   0.2782610   0.0000000), wk =   0.0072993
        k(  179) = (   0.2753620   0.2753620   0.0000000), wk =   0.0072993
        k(  180) = (   0.2724640   0.2724640   0.0000000), wk =   0.0072993
        k(  181) = (   0.2695650   0.2695650   0.0000000), wk =   0.0072993
        k(  182) = (   0.2666670   0.2666670   0.0000000), wk =   0.0072993
        k(  183) = (   0.2637680   0.2637680   0.0000000), wk =   0.0072993
        k(  184) = (   0.2608700   0.2608700   0.0000000), wk =   0.0072993
        k(  185) = (   0.2579710   0.2579710   0.0000000), wk =   0.0072993
        k(  186) = (   0.2550720   0.2550720   0.0000000), wk =   0.0072993
        k(  187) = (   0.2521740   0.2521740   0.0000000), wk =   0.0072993
        k(  188) = (   0.2492750   0.2492750   0.0000000), wk =   0.0072993
        k(  189) = (   0.2463770   0.2463770   0.0000000), wk =   0.0072993
        k(  190) = (   0.2434780   0.2434780   0.0000000), wk =   0.0072993
        k(  191) = (   0.2405800   0.2405800   0.0000000), wk =   0.0072993
        k(  192) = (   0.2376810   0.2376810   0.0000000), wk =   0.0072993
        k(  193) = (   0.2347830   0.2347830   0.0000000), wk =   0.0072993
        k(  194) = (   0.2318840   0.2318840   0.0000000), wk =   0.0072993
        k(  195) = (   0.2289860   0.2289860   0.0000000), wk =   0.0072993
        k(  196) = (   0.2260870   0.2260870   0.0000000), wk =   0.0072993
        k(  197) = (   0.2231880   0.2231880   0.0000000), wk =   0.0072993
        k(  198) = (   0.2202900   0.2202900   0.0000000), wk =   0.0072993
        k(  199) = (   0.2173910   0.2173910   0.0000000), wk =   0.0072993
        k(  200) = (   0.2144930   0.2144930   0.0000000), wk =   0.0072993
        k(  201) = (   0.2115940   0.2115940   0.0000000), wk =   0.0072993
        k(  202) = (   0.2086960   0.2086960   0.0000000), wk =   0.0072993
        k(  203) = (   0.2057970   0.2057970   0.0000000), wk =   0.0072993
        k(  204) = (   0.2028990   0.2028990   0.0000000), wk =   0.0072993
        k(  205) = (   0.2000000   0.2000000   0.0000000), wk =   0.0072993
        k(  206) = (   0.1971010   0.1971010   0.0000000), wk =   0.0072993
        k(  207) = (   0.1942030   0.1942030   0.0000000), wk =   0.0072993
        k(  208) = (   0.1913040   0.1913040   0.0000000), wk =   0.0072993
        k(  209) = (   0.1884060   0.1884060   0.0000000), wk =   0.0072993
        k(  210) = (   0.1855070   0.1855070   0.0000000), wk =   0.0072993
        k(  211) = (   0.1826090   0.1826090   0.0000000), wk =   0.0072993
        k(  212) = (   0.1797100   0.1797100   0.0000000), wk =   0.0072993
        k(  213) = (   0.1768120   0.1768120   0.0000000), wk =   0.0072993
        k(  214) = (   0.1739130   0.1739130   0.0000000), wk =   0.0072993
        k(  215) = (   0.1710140   0.1710140   0.0000000), wk =   0.0072993
        k(  216) = (   0.1681160   0.1681160   0.0000000), wk =   0.0072993
        k(  217) = (   0.1652170   0.1652170   0.0000000), wk =   0.0072993
        k(  218) = (   0.1623190   0.1623190   0.0000000), wk =   0.0072993
        k(  219) = (   0.1594200   0.1594200   0.0000000), wk =   0.0072993
        k(  220) = (   0.1565220   0.1565220   0.0000000), wk =   0.0072993
        k(  221) = (   0.1536230   0.1536230   0.0000000), wk =   0.0072993
        k(  222) = (   0.1507250   0.1507250   0.0000000), wk =   0.0072993
        k(  223) = (   0.1478260   0.1478260   0.0000000), wk =   0.0072993
        k(  224) = (   0.1449280   0.1449280   0.0000000), wk =   0.0072993
        k(  225) = (   0.1420290   0.1420290   0.0000000), wk =   0.0072993
        k(  226) = (   0.1391300   0.1391300   0.0000000), wk =   0.0072993
        k(  227) = (   0.1362320   0.1362320   0.0000000), wk =   0.0072993
        k(  228) = (   0.1333330   0.1333330   0.0000000), wk =   0.0072993
        k(  229) = (   0.1304350   0.1304350   0.0000000), wk =   0.0072993
        k(  230) = (   0.1275360   0.1275360   0.0000000), wk =   0.0072993
        k(  231) = (   0.1246380   0.1246380   0.0000000), wk =   0.0072993
        k(  232) = (   0.1217390   0.1217390   0.0000000), wk =   0.0072993
        k(  233) = (   0.1188410   0.1188410   0.0000000), wk =   0.0072993
        k(  234) = (   0.1159420   0.1159420   0.0000000), wk =   0.0072993
        k(  235) = (   0.1130430   0.1130430   0.0000000), wk =   0.0072993
        k(  236) = (   0.1101450   0.1101450   0.0000000), wk =   0.0072993
        k(  237) = (   0.1072460   0.1072460   0.0000000), wk =   0.0072993
        k(  238) = (   0.1043480   0.1043480   0.0000000), wk =   0.0072993
        k(  239) = (   0.1014490   0.1014490   0.0000000), wk =   0.0072993
        k(  240) = (   0.0985510   0.0985510   0.0000000), wk =   0.0072993
        k(  241) = (   0.0956520   0.0956520   0.0000000), wk =   0.0072993
        k(  242) = (   0.0927540   0.0927540   0.0000000), wk =   0.0072993
        k(  243) = (   0.0898550   0.0898550   0.0000000), wk =   0.0072993
        k(  244) = (   0.0869570   0.0869570   0.0000000), wk =   0.0072993
        k(  245) = (   0.0840580   0.0840580   0.0000000), wk =   0.0072993
        k(  246) = (   0.0811590   0.0811590   0.0000000), wk =   0.0072993
        k(  247) = (   0.0782610   0.0782610   0.0000000), wk =   0.0072993
        k(  248) = (   0.0753620   0.0753620   0.0000000), wk =   0.0072993
        k(  249) = (   0.0724640   0.0724640   0.0000000), wk =   0.0072993
        k(  250) = (   0.0695650   0.0695650   0.0000000), wk =   0.0072993
        k(  251) = (   0.0666670   0.0666670   0.0000000), wk =   0.0072993
        k(  252) = (   0.0637680   0.0637680   0.0000000), wk =   0.0072993
        k(  253) = (   0.0608700   0.0608700   0.0000000), wk =   0.0072993
        k(  254) = (   0.0579710   0.0579710   0.0000000), wk =   0.0072993
        k(  255) = (   0.0550720   0.0550720   0.0000000), wk =   0.0072993
        k(  256) = (   0.0521740   0.0521740   0.0000000), wk =   0.0072993
        k(  257) = (   0.0492750   0.0492750   0.0000000), wk =   0.0072993
        k(  258) = (   0.0463770   0.0463770   0.0000000), wk =   0.0072993
        k(  259) = (   0.0434780   0.0434780   0.0000000), wk =   0.0072993
        k(  260) = (   0.0405800   0.0405800   0.0000000), wk =   0.0072993
        k(  261) = (   0.0376810   0.0376810   0.0000000), wk =   0.0072993
        k(  262) = (   0.0347830   0.0347830   0.0000000), wk =   0.0072993
        k(  263) = (   0.0318840   0.0318840   0.0000000), wk =   0.0072993
        k(  264) = (   0.0289860   0.0289860   0.0000000), wk =   0.0072993
        k(  265) = (   0.0260870   0.0260870   0.0000000), wk =   0.0072993
        k(  266) = (   0.0231880   0.0231880   0.0000000), wk =   0.0072993
        k(  267) = (   0.0202900   0.0202900   0.0000000), wk =   0.0072993
        k(  268) = (   0.0173910   0.0173910   0.0000000), wk =   0.0072993
        k(  269) = (   0.0144930   0.0144930   0.0000000), wk =   0.0072993
        k(  270) = (   0.0115940   0.0115940   0.0000000), wk =   0.0072993
        k(  271) = (   0.0086960   0.0086960   0.0000000), wk =   0.0072993
        k(  272) = (   0.0057970   0.0057970   0.0000000), wk =   0.0072993
        k(  273) = (   0.0028990   0.0028990   0.0000000), wk =   0.0072993
        k(  274) = (   0.0000000   0.0000000   0.0000000), wk =   0.0072993

     Dense  grid:    21175 G-vectors     FFT dimensions: (  18,  18, 150)

     Dynamical RAM for                 wfc:       0.11 MB

     Dynamical RAM for     wfc (w. buffer):       0.11 MB

     Dynamical RAM for           str. fact:       0.01 MB

     Dynamical RAM for           local pot:       0.00 MB

     Dynamical RAM for          nlocal pot:       0.03 MB

     Dynamical RAM for                qrad:       0.28 MB

     Dynamical RAM for          rho,v,vnew:       0.10 MB

     Dynamical RAM for           G-vectors:       0.06 MB

     Dynamical RAM for          h,s,v(r/c):       0.66 MB

     Dynamical RAM for          <psi|beta>:       0.01 MB

     Dynamical RAM for                 psi:       0.22 MB

     Dynamical RAM for                hpsi:       0.22 MB

     Dynamical RAM for                spsi:       0.22 MB

     Dynamical RAM for      wfcinit/wfcrot:       0.31 MB

     Dynamical RAM for           addusdens:       0.65 MB

     Estimated static dynamical RAM per process >       0.71 MB

     Estimated max dynamical RAM per process >       2.05 MB

     Estimated total dynamical RAM >      45.09 MB

     Check: negative core charge=   -0.000014

     The potential is recalculated from file :
     ./out/graphene.save/charge-density


     negative rho (up, down):  1.261E-04 0.000E+00
     Starting wfcs are    8 randomized atomic wfcs +   52 random wfcs
     Checking if some PAW data can be deallocated... 

     Band Structure Calculation
     Davidson diagonalization with overlap

     Computing kpt #:     1  of   274
     total cpu time spent up to now is        0.8 secs

     Computing kpt #:     2  of   274
     total cpu time spent up to now is        1.5 secs

     Computing kpt #:     3  of   274
     c_bands:  1 eigenvalues not converged
     total cpu time spent up to now is        2.2 secs

     Computing kpt #:     4  of   274
     c_bands:  1 eigenvalues not converged
     total cpu time spent up to now is        2.9 secs

     Computing kpt #:     5  of   274
     total cpu time spent up to now is        3.5 secs

     Computing kpt #:     6  of   274
     total cpu time spent up to now is        4.0 secs

     Computing kpt #:     7  of   274
     c_bands:  1 eigenvalues not converged
     total cpu time spent up to now is        4.7 secs

     Computing kpt #:     8  of   274
     total cpu time spent up to now is        5.3 secs

     Computing kpt #:     9  of   274
     total cpu time spent up to now is        5.8 secs

     Computing kpt #:    10  of   274
     total cpu time spent up to now is        6.3 secs

     Computing kpt #:    11  of   274
     total cpu time spent up to now is        6.7 secs

     Computing kpt #:    12  of   274
     total cpu time spent up to now is        7.1 secs

     Computing kpt #:    13  of   274
     total cpu time spent up to now is        7.5 secs

     Computing kpt #:    14  of   274
     total cpu time spent up to now is        8.0 secs

     Computing kpt #:    15  of   274
     total cpu time spent up to now is        8.5 secs

     Computing kpt #:    16  of   274
     total cpu time spent up to now is        9.0 secs

     Computing kpt #:    17  of   274
     c_bands:  1 eigenvalues not converged
     total cpu time spent up to now is        9.7 secs

     Computing kpt #:    18  of   274
     total cpu time spent up to now is       10.3 secs

     Computing kpt #:    19  of   274
     total cpu time spent up to now is       10.9 secs

     Computing kpt #:    20  of   274
     total cpu time spent up to now is       11.4 secs

     Computing kpt #:    21  of   274
     c_bands:  1 eigenvalues not converged
     total cpu time spent up to now is       12.1 secs

     Computing kpt #:    22  of   274
     total cpu time spent up to now is       12.5 secs

     Computing kpt #:    23  of   274
     total cpu time spent up to now is       13.0 secs

     Computing kpt #:    24  of   274
     total cpu time spent up to now is       13.4 secs

     Computing kpt #:    25  of   274
     total cpu time spent up to now is       13.8 secs

     Computing kpt #:    26  of   274
     total cpu time spent up to now is       14.3 secs

     Computing kpt #:    27  of   274
     total cpu time spent up to now is       14.7 secs

     Computing kpt #:    28  of   274
     total cpu time spent up to now is       15.2 secs

     Computing kpt #:    29  of   274
     total cpu time spent up to now is       15.6 secs

     Computing kpt #:    30  of   274
     total cpu time spent up to now is       16.0 secs

     Computing kpt #:    31  of   274
     total cpu time spent up to now is       16.4 secs

     Computing kpt #:    32  of   274
     total cpu time spent up to now is       16.7 secs

     Computing kpt #:    33  of   274
     total cpu time spent up to now is       17.1 secs

     Computing kpt #:    34  of   274
     total cpu time spent up to now is       17.5 secs

     Computing kpt #:    35  of   274
     total cpu time spent up to now is       17.9 secs

     Computing kpt #:    36  of   274
     total cpu time spent up to now is       18.3 secs

     Computing kpt #:    37  of   274
     total cpu time spent up to now is       18.7 secs

     Computing kpt #:    38  of   274
     total cpu time spent up to now is       19.0 secs

     Computing kpt #:    39  of   274
     total cpu time spent up to now is       19.4 secs

     Computing kpt #:    40  of   274
     total cpu time spent up to now is       19.7 secs

     Computing kpt #:    41  of   274
     total cpu time spent up to now is       20.1 secs

     Computing kpt #:    42  of   274
     total cpu time spent up to now is       20.4 secs

     Computing kpt #:    43  of   274
     total cpu time spent up to now is       20.8 secs

     Computing kpt #:    44  of   274
     total cpu time spent up to now is       21.1 secs

     Computing kpt #:    45  of   274
     total cpu time spent up to now is       21.5 secs

     Computing kpt #:    46  of   274
     total cpu time spent up to now is       21.8 secs

     Computing kpt #:    47  of   274
     total cpu time spent up to now is       22.1 secs

     Computing kpt #:    48  of   274
     total cpu time spent up to now is       22.5 secs

     Computing kpt #:    49  of   274
     total cpu time spent up to now is       22.8 secs

     Computing kpt #:    50  of   274
     total cpu time spent up to now is       23.1 secs

     Computing kpt #:    51  of   274
     total cpu time spent up to now is       23.4 secs

     Computing kpt #:    52  of   274
     total cpu time spent up to now is       23.7 secs

     Computing kpt #:    53  of   274
     total cpu time spent up to now is       24.0 secs

     Computing kpt #:    54  of   274
     total cpu time spent up to now is       24.3 secs

     Computing kpt #:    55  of   274
     total cpu time spent up to now is       24.6 secs

     Computing kpt #:    56  of   274
     total cpu time spent up to now is       24.9 secs

     Computing kpt #:    57  of   274
     total cpu time spent up to now is       25.2 secs

     Computing kpt #:    58  of   274
     total cpu time spent up to now is       25.5 secs

     Computing kpt #:    59  of   274
     total cpu time spent up to now is       25.8 secs

     Computing kpt #:    60  of   274
     total cpu time spent up to now is       26.2 secs

     Computing kpt #:    61  of   274
     total cpu time spent up to now is       26.5 secs

     Computing kpt #:    62  of   274
     total cpu time spent up to now is       26.8 secs

     Computing kpt #:    63  of   274
     total cpu time spent up to now is       27.1 secs

     Computing kpt #:    64  of   274
     total cpu time spent up to now is       27.4 secs

     Computing kpt #:    65  of   274
     total cpu time spent up to now is       27.7 secs

     Computing kpt #:    66  of   274
     total cpu time spent up to now is       28.0 secs

     Computing kpt #:    67  of   274
     total cpu time spent up to now is       28.3 secs

     Computing kpt #:    68  of   274
     total cpu time spent up to now is       28.7 secs

     Computing kpt #:    69  of   274
     total cpu time spent up to now is       29.0 secs

     Computing kpt #:    70  of   274
     total cpu time spent up to now is       29.3 secs

     Computing kpt #:    71  of   274
     total cpu time spent up to now is       29.6 secs

     Computing kpt #:    72  of   274
     total cpu time spent up to now is       29.9 secs

     Computing kpt #:    73  of   274
     total cpu time spent up to now is       30.2 secs

     Computing kpt #:    74  of   274
     total cpu time spent up to now is       30.5 secs

     Computing kpt #:    75  of   274
     total cpu time spent up to now is       30.8 secs

     Computing kpt #:    76  of   274
     total cpu time spent up to now is       31.1 secs

     Computing kpt #:    77  of   274
     total cpu time spent up to now is       31.5 secs

     Computing kpt #:    78  of   274
     total cpu time spent up to now is       31.8 secs

     Computing kpt #:    79  of   274
     total cpu time spent up to now is       33.8 secs

     Computing kpt #:    80  of   274
     total cpu time spent up to now is       34.1 secs

     Computing kpt #:    81  of   274
     total cpu time spent up to now is       34.4 secs

     Computing kpt #:    82  of   274
     total cpu time spent up to now is       34.7 secs

     Computing kpt #:    83  of   274
     total cpu time spent up to now is       35.1 secs

     Computing kpt #:    84  of   274
     total cpu time spent up to now is       35.4 secs

     Computing kpt #:    85  of   274
     total cpu time spent up to now is       35.7 secs

     Computing kpt #:    86  of   274
     total cpu time spent up to now is       36.0 secs

     Computing kpt #:    87  of   274
     total cpu time spent up to now is       36.3 secs

     Computing kpt #:    88  of   274
     total cpu time spent up to now is       36.7 secs

     Computing kpt #:    89  of   274
     total cpu time spent up to now is       37.0 secs

     Computing kpt #:    90  of   274
     total cpu time spent up to now is       37.3 secs

     Computing kpt #:    91  of   274
     total cpu time spent up to now is       37.6 secs

     Computing kpt #:    92  of   274
     total cpu time spent up to now is       38.0 secs

     Computing kpt #:    93  of   274
     total cpu time spent up to now is       38.3 secs

     Computing kpt #:    94  of   274
     total cpu time spent up to now is       38.6 secs

     Computing kpt #:    95  of   274
     total cpu time spent up to now is       39.0 secs

     Computing kpt #:    96  of   274
     total cpu time spent up to now is       39.3 secs

     Computing kpt #:    97  of   274
     total cpu time spent up to now is       39.6 secs

     Computing kpt #:    98  of   274
     total cpu time spent up to now is       40.0 secs

     Computing kpt #:    99  of   274
     total cpu time spent up to now is       40.3 secs

     Computing kpt #:   100  of   274
     total cpu time spent up to now is       40.6 secs

     Computing kpt #:   101  of   274
     total cpu time spent up to now is       40.9 secs

     Computing kpt #:   102  of   274
     total cpu time spent up to now is       41.2 secs

     Computing kpt #:   103  of   274
     total cpu time spent up to now is       41.6 secs

     Computing kpt #:   104  of   274
     total cpu time spent up to now is       41.9 secs

     Computing kpt #:   105  of   274
     total cpu time spent up to now is       42.2 secs

     Computing kpt #:   106  of   274
     total cpu time spent up to now is       42.5 secs

     Computing kpt #:   107  of   274
     total cpu time spent up to now is       42.9 secs

     Computing kpt #:   108  of   274
     total cpu time spent up to now is       43.2 secs

     Computing kpt #:   109  of   274
     total cpu time spent up to now is       43.5 secs

     Computing kpt #:   110  of   274
     total cpu time spent up to now is       43.9 secs

     Computing kpt #:   111  of   274
     total cpu time spent up to now is       44.2 secs

     Computing kpt #:   112  of   274
     total cpu time spent up to now is       44.5 secs

     Computing kpt #:   113  of   274
     total cpu time spent up to now is       44.9 secs

     Computing kpt #:   114  of   274
     total cpu time spent up to now is       45.2 secs

     Computing kpt #:   115  of   274
     total cpu time spent up to now is       45.5 secs

     Computing kpt #:   116  of   274
     total cpu time spent up to now is       45.8 secs

     Computing kpt #:   117  of   274
     total cpu time spent up to now is       46.1 secs

     Computing kpt #:   118  of   274
     total cpu time spent up to now is       46.5 secs

     Computing kpt #:   119  of   274
     total cpu time spent up to now is       46.8 secs

     Computing kpt #:   120  of   274
     total cpu time spent up to now is       47.1 secs

     Computing kpt #:   121  of   274
     total cpu time spent up to now is       47.4 secs

     Computing kpt #:   122  of   274
     total cpu time spent up to now is       47.8 secs

     Computing kpt #:   123  of   274
     total cpu time spent up to now is       48.1 secs

     Computing kpt #:   124  of   274
     total cpu time spent up to now is       48.4 secs

     Computing kpt #:   125  of   274
     total cpu time spent up to now is       48.7 secs

     Computing kpt #:   126  of   274
     total cpu time spent up to now is       49.0 secs

     Computing kpt #:   127  of   274
     total cpu time spent up to now is       49.3 secs

     Computing kpt #:   128  of   274
     total cpu time spent up to now is       49.6 secs

     Computing kpt #:   129  of   274
     total cpu time spent up to now is       49.9 secs

     Computing kpt #:   130  of   274
     total cpu time spent up to now is       50.2 secs

     Computing kpt #:   131  of   274
     total cpu time spent up to now is       50.5 secs

     Computing kpt #:   132  of   274
     total cpu time spent up to now is       50.8 secs

     Computing kpt #:   133  of   274
     total cpu time spent up to now is       51.1 secs

     Computing kpt #:   134  of   274
     total cpu time spent up to now is       51.5 secs

     Computing kpt #:   135  of   274
     total cpu time spent up to now is       51.8 secs

     Computing kpt #:   136  of   274
     total cpu time spent up to now is       52.1 secs

     Computing kpt #:   137  of   274
     total cpu time spent up to now is       52.4 secs

     Computing kpt #:   138  of   274
     total cpu time spent up to now is       52.8 secs

     Computing kpt #:   139  of   274
     total cpu time spent up to now is       53.1 secs

     Computing kpt #:   140  of   274
     total cpu time spent up to now is       53.4 secs

     Computing kpt #:   141  of   274
     total cpu time spent up to now is       53.7 secs

     Computing kpt #:   142  of   274
     total cpu time spent up to now is       54.1 secs

     Computing kpt #:   143  of   274
     total cpu time spent up to now is       54.4 secs

     Computing kpt #:   144  of   274
     total cpu time spent up to now is       54.7 secs

     Computing kpt #:   145  of   274
     total cpu time spent up to now is       55.0 secs

     Computing kpt #:   146  of   274
     total cpu time spent up to now is       55.4 secs

     Computing kpt #:   147  of   274
     total cpu time spent up to now is       55.7 secs

     Computing kpt #:   148  of   274
     total cpu time spent up to now is       56.0 secs

     Computing kpt #:   149  of   274
     total cpu time spent up to now is       56.3 secs

     Computing kpt #:   150  of   274
     total cpu time spent up to now is       56.6 secs

     Computing kpt #:   151  of   274
     total cpu time spent up to now is       57.0 secs

     Computing kpt #:   152  of   274
     total cpu time spent up to now is       57.3 secs

     Computing kpt #:   153  of   274
     total cpu time spent up to now is       57.6 secs

     Computing kpt #:   154  of   274
     total cpu time spent up to now is       57.9 secs

     Computing kpt #:   155  of   274
     total cpu time spent up to now is       58.3 secs

     Computing kpt #:   156  of   274
     total cpu time spent up to now is       58.6 secs

     Computing kpt #:   157  of   274
     total cpu time spent up to now is       58.9 secs

     Computing kpt #:   158  of   274
     total cpu time spent up to now is       59.3 secs

     Computing kpt #:   159  of   274
     total cpu time spent up to now is       59.6 secs

     Computing kpt #:   160  of   274
     total cpu time spent up to now is       59.9 secs

     Computing kpt #:   161  of   274
     total cpu time spent up to now is       60.2 secs

     Computing kpt #:   162  of   274
     total cpu time spent up to now is       60.5 secs

     Computing kpt #:   163  of   274
     total cpu time spent up to now is       60.9 secs

     Computing kpt #:   164  of   274
     total cpu time spent up to now is       61.2 secs

     Computing kpt #:   165  of   274
     total cpu time spent up to now is       61.5 secs

     Computing kpt #:   166  of   274
     total cpu time spent up to now is       61.8 secs

     Computing kpt #:   167  of   274
     total cpu time spent up to now is       62.1 secs

     Computing kpt #:   168  of   274
     total cpu time spent up to now is       62.4 secs

     Computing kpt #:   169  of   274
     total cpu time spent up to now is       62.8 secs

     Computing kpt #:   170  of   274
     total cpu time spent up to now is       63.1 secs

     Computing kpt #:   171  of   274
     total cpu time spent up to now is       63.5 secs

     Computing kpt #:   172  of   274
     total cpu time spent up to now is       63.8 secs

     Computing kpt #:   173  of   274
     total cpu time spent up to now is       64.2 secs

     Computing kpt #:   174  of   274
     total cpu time spent up to now is       64.6 secs

     Computing kpt #:   175  of   274
     total cpu time spent up to now is       65.0 secs

     Computing kpt #:   176  of   274
     total cpu time spent up to now is       65.4 secs

     Computing kpt #:   177  of   274
     total cpu time spent up to now is       65.8 secs

     Computing kpt #:   178  of   274
     total cpu time spent up to now is       66.1 secs

     Computing kpt #:   179  of   274
     total cpu time spent up to now is       66.5 secs

     Computing kpt #:   180  of   274
     total cpu time spent up to now is       66.8 secs

     Computing kpt #:   181  of   274
     total cpu time spent up to now is       69.3 secs

     Computing kpt #:   182  of   274
     total cpu time spent up to now is       69.7 secs

     Computing kpt #:   183  of   274
     total cpu time spent up to now is       70.0 secs

     Computing kpt #:   184  of   274
     total cpu time spent up to now is       70.3 secs

     Computing kpt #:   185  of   274
     total cpu time spent up to now is       70.6 secs

     Computing kpt #:   186  of   274
     total cpu time spent up to now is       71.0 secs

     Computing kpt #:   187  of   274
     total cpu time spent up to now is       71.3 secs

     Computing kpt #:   188  of   274
     total cpu time spent up to now is       71.7 secs

     Computing kpt #:   189  of   274
     total cpu time spent up to now is       72.0 secs

     Computing kpt #:   190  of   274
     total cpu time spent up to now is       72.4 secs

     Computing kpt #:   191  of   274
     total cpu time spent up to now is       72.8 secs

     Computing kpt #:   192  of   274
     total cpu time spent up to now is       73.1 secs

     Computing kpt #:   193  of   274
     total cpu time spent up to now is       73.5 secs

     Computing kpt #:   194  of   274
     total cpu time spent up to now is       73.8 secs

     Computing kpt #:   195  of   274
     total cpu time spent up to now is       74.2 secs

     Computing kpt #:   196  of   274
     total cpu time spent up to now is       74.6 secs

     Computing kpt #:   197  of   274
     total cpu time spent up to now is       75.2 secs

     Computing kpt #:   198  of   274
     total cpu time spent up to now is       75.7 secs

     Computing kpt #:   199  of   274
     total cpu time spent up to now is       76.2 secs

     Computing kpt #:   200  of   274
     total cpu time spent up to now is       76.6 secs

     Computing kpt #:   201  of   274
     total cpu time spent up to now is       77.1 secs

     Computing kpt #:   202  of   274
     total cpu time spent up to now is       77.6 secs

     Computing kpt #:   203  of   274
     c_bands:  1 eigenvalues not converged
     total cpu time spent up to now is       78.3 secs

     Computing kpt #:   204  of   274
     c_bands:  1 eigenvalues not converged
     total cpu time spent up to now is       78.9 secs

     Computing kpt #:   205  of   274
     c_bands:  1 eigenvalues not converged
     total cpu time spent up to now is       79.6 secs

     Computing kpt #:   206  of   274
     c_bands:  1 eigenvalues not converged
     total cpu time spent up to now is       80.2 secs

     Computing kpt #:   207  of   274
     c_bands:  1 eigenvalues not converged
     total cpu time spent up to now is       80.8 secs

     Computing kpt #:   208  of   274
     total cpu time spent up to now is       81.3 secs

     Computing kpt #:   209  of   274
     total cpu time spent up to now is       81.7 secs

     Computing kpt #:   210  of   274
     total cpu time spent up to now is       82.2 secs

     Computing kpt #:   211  of   274
     total cpu time spent up to now is       82.6 secs

     Computing kpt #:   212  of   274
     total cpu time spent up to now is       83.0 secs

     Computing kpt #:   213  of   274
     total cpu time spent up to now is       83.5 secs

     Computing kpt #:   214  of   274
     total cpu time spent up to now is       84.0 secs

     Computing kpt #:   215  of   274
     total cpu time spent up to now is       84.5 secs

     Computing kpt #:   216  of   274
     total cpu time spent up to now is       84.9 secs

     Computing kpt #:   217  of   274
     total cpu time spent up to now is       85.4 secs

     Computing kpt #:   218  of   274
     total cpu time spent up to now is       85.8 secs

     Computing kpt #:   219  of   274
     total cpu time spent up to now is       86.2 secs

     Computing kpt #:   220  of   274
     total cpu time spent up to now is       86.6 secs

     Computing kpt #:   221  of   274
     total cpu time spent up to now is       87.0 secs

     Computing kpt #:   222  of   274
     total cpu time spent up to now is       87.5 secs

     Computing kpt #:   223  of   274
     total cpu time spent up to now is       87.9 secs

     Computing kpt #:   224  of   274
     c_bands:  1 eigenvalues not converged
     total cpu time spent up to now is       88.5 secs

     Computing kpt #:   225  of   274
     total cpu time spent up to now is       89.2 secs

     Computing kpt #:   226  of   274
     total cpu time spent up to now is       89.7 secs

     Computing kpt #:   227  of   274
     total cpu time spent up to now is       90.1 secs

     Computing kpt #:   228  of   274
     total cpu time spent up to now is       90.6 secs

     Computing kpt #:   229  of   274
     total cpu time spent up to now is       91.0 secs

     Computing kpt #:   230  of   274
     total cpu time spent up to now is       91.5 secs

     Computing kpt #:   231  of   274
     total cpu time spent up to now is       92.0 secs

     Computing kpt #:   232  of   274
     total cpu time spent up to now is       92.5 secs

     Computing kpt #:   233  of   274
     total cpu time spent up to now is       93.0 secs

     Computing kpt #:   234  of   274
     total cpu time spent up to now is       93.6 secs

     Computing kpt #:   235  of   274
     total cpu time spent up to now is       94.1 secs

     Computing kpt #:   236  of   274
     total cpu time spent up to now is       94.5 secs

     Computing kpt #:   237  of   274
[...]
    23.0393  24.1433  26.4225  26.7420  26.7997  27.1622  27.2259  27.2593
    27.2950  28.3458  28.5404  28.6134  28.6965  29.3127  29.3366  30.6786
    30.8411  30.9761  31.0337  32.6731  33.6614  33.7012  33.7968  33.8810
    34.2541  34.5514  34.7891  34.9226  34.9834  35.1101  35.1239  36.2082
    36.2593  36.2848  36.3454  36.4433

          k = 0.0754 0.1305 0.0000 (  2735 PWs)   bands (ev):

   -21.5083  -9.5115  -6.8037  -6.2265   1.1942   1.7037   1.7998   2.8724
     3.2407   4.9682   5.5898   6.3382   7.4077   7.8595   7.9404   8.7735
    11.1584  11.6913  12.7163  16.1307  17.4597  20.7735  21.3833  22.5765
    22.9951  24.2256  26.6572  26.7576  26.9724  27.4042  27.4584  27.4940
    27.5297  28.5023  28.7801  28.8386  28.9280  29.2723  29.4217  30.8965
    31.0785  31.2033  31.2459  32.5891  33.7632  33.8169  33.9121  34.0273
    34.3314  34.6089  34.8103  34.8832  34.9754  35.0702  35.0997  36.1773
    36.2211  36.2271  36.3094  36.3866

          k = 0.0725 0.1255 0.0000 (  2727 PWs)   bands (ev):

   -21.5386  -9.5477  -6.7106  -6.1660   1.1523   1.6615   1.7575   2.8305
     3.1987   4.9267   5.5490   6.3132   7.3280   7.8996   7.9530   8.7316
    11.0884  11.6523  12.6749  16.0978  17.4191  20.8268  21.3149  22.6849
    22.9527  24.3072  26.7171  26.8934  27.2046  27.6479  27.6883  27.7310
    27.7664  28.6314  29.0213  29.0663  29.1536  29.2413  29.5369  31.1133
    31.3171  31.4313  31.4631  32.4788  33.8326  33.8933  33.9508  34.1988
    34.4825  34.6650  34.8283  34.8504  35.0035  35.0203  35.1291  36.1476
    36.1654  36.1841  36.2747  36.3339

          k = 0.0696 0.1205 0.0000 (  2723 PWs)   bands (ev):

   -21.5678  -9.5825  -6.6193  -6.1073   1.1121   1.6209   1.7168   2.7901
     3.1584   4.8867   5.5097   6.2895   7.2482   7.8604   8.0438   8.6913
    11.0222  11.6147  12.6351  16.0657  17.3799  20.8672  21.2464  22.8088
    22.9122  24.3884  26.6781  27.1313  27.4388  27.8934  27.9127  27.9704
    28.0052  28.7350  29.1875  29.2643  29.2966  29.4055  29.6847  31.3255
    31.5573  31.6597  31.6835  32.3567  33.8753  33.9296  33.9490  34.3831
    34.6505  34.6935  34.8249  34.8453  34.9757  35.0880  35.2162  36.0987
    36.1196  36.1485  36.2424  36.2856

          k = 0.0667 0.1155 0.0000 (  2725 PWs)   bands (ev):

   -21.5958  -9.6159  -6.5301  -6.0506   1.0736   1.5819   1.6779   2.7515
     3.1197   4.8484   5.4721   6.2670   7.1686   7.8227   8.1317   8.6526
    10.9598  11.5785  12.5969  16.0346  17.3423  20.8963  21.1781  22.8734
    22.9462  24.4692  26.6408  27.3706  27.6747  28.1257  28.1404  28.2118
    28.2461  28.8238  29.1531  29.5088  29.5291  29.6414  29.8610  31.5225
    31.7986  31.8880  31.9056  32.2402  33.8997  33.9312  33.9322  34.5684
    34.6927  34.7131  34.8019  34.9414  34.9641  35.2207  35.3520  36.0256
    36.0937  36.1150  36.2138  36.2423

          k = 0.0638 0.1104 0.0000 (  2725 PWs)   bands (ev):

   -21.6227  -9.6479  -6.4431  -5.9959   1.0366   1.5446   1.6405   2.7144
     3.0827   4.8117   5.4360   6.2455   7.0895   7.7867   8.2168   8.6156
    10.9011  11.5439  12.5602  16.0044  17.3063  20.9160  21.1105  22.8364
    23.0948  24.5500  26.6050  27.6115  27.9125  28.3163  28.3892  28.4553
    28.4890  28.9168  29.1188  29.7551  29.7639  29.8808  30.0590  31.6683
    32.0412  32.1156  32.1274  32.1697  33.9059  33.9100  33.9132  34.6768
    34.6960  34.7249  34.7687  34.9427  35.1709  35.3773  35.5173  35.9456
    36.0707  36.0842  36.1922  36.2049

          k = 0.0609 0.1054 0.0000 (  2725 PWs)   bands (ev):

   -21.6483  -9.6785  -6.3584  -5.9432   1.0014   1.5090   1.6049   2.6790
     3.0473   4.7766   5.4016   6.2253   7.0113   7.7522   8.2988   8.5801
    10.8460  11.5107  12.5252  15.9753  17.2718  20.9282  21.0438  22.8012
    23.2526  24.6307  26.5710  27.8539  28.1517  28.4677  28.6396  28.7005
    28.7339  29.0374  29.0861  30.0008  30.0028  30.1220  30.2722  31.6850
    32.2253  32.2846  32.3411  32.3461  33.8613  33.8863  33.9216  34.6545
    34.6672  34.7309  34.7754  35.0525  35.3921  35.5362  35.6929  35.8624
    36.0505  36.0580  36.1752  36.1852

          k = 0.0580 0.1004 0.0000 (  2721 PWs)   bands (ev):

   -21.6727  -9.7076  -6.2760  -5.8927   0.9677   1.4750   1.5709   2.6453
     3.0135   4.7432   5.3687   6.2061   6.9341   7.7193   8.3779   8.5463
    10.7943  11.4791  12.4919  15.9474  17.2389  20.9345  20.9785  22.7677
    23.4176  24.7115  26.5385  28.0979  28.3926  28.5703  28.8918  28.9450
    28.9807  29.0577  29.2005  30.2397  30.2522  30.3649  30.4959  31.5885
    32.3934  32.5287  32.5567  32.5630  33.8049  33.8628  33.9298  34.6301
    34.6368  34.6912  34.7590  35.2270  35.6102  35.6744  35.7481  35.8938
    36.0319  36.0422  36.1562  36.2096

          k = 0.0551 0.0954 0.0000 (  2725 PWs)   bands (ev):

   -21.6960  -9.7354  -6.1963  -5.8443   0.9357   1.4426   1.5385   2.6132
     2.9814   4.7114   5.3374   6.1881   6.8582   7.6880   8.4538   8.5141
    10.7460  11.4489  12.4601  15.9206  17.2076  20.9148  20.9362  22.7360
    23.5881  24.7922  26.5078  28.3433  28.6328  28.6347  29.0206  29.1457
    29.2018  29.2295  29.4007  30.4802  30.5032  30.6093  30.7270  31.4513
    32.6024  32.7489  32.7726  32.7784  33.7485  33.8410  33.9424  34.6055
    34.6067  34.6513  34.7306  35.4034  35.6591  35.7664  35.7954  36.0124
    36.0439  36.0635  36.1546  36.2895

          k = 0.0522 0.0904 0.0000 (  2727 PWs)   bands (ev):

   -21.7181  -9.7618  -6.1194  -5.7980   0.9054   1.4120   1.5078   2.5827
     2.9510   4.6812   5.3078   6.1712   6.7841   7.6583   8.4836   8.5263
    10.7010  11.4202  12.4299  15.8950  17.1779  20.8529  20.9345  22.7060
    23.7623  24.8732  26.4787  28.5901  28.6714  28.8761  28.9961  29.4011
    29.4515  29.4800  29.6241  30.7213  30.7557  30.8548  30.9633  31.3024
    32.8254  32.9002  32.9822  33.0148  33.7153  33.8229  33.9652  34.5778
    34.5819  34.6123  34.7008  35.5575  35.5675  35.8075  35.8753  35.9906
    36.1387  36.1825  36.1921  36.4276

          k = 0.0493 0.0853 0.0000 (  2727 PWs)   bands (ev):

   -21.7390  -9.7868  -6.0453  -5.7540   0.8766   1.3830   1.4788   2.5539
     2.9222   4.6526   5.2797   6.1554   6.7119   7.6302   8.4547   8.5956
    10.6590  11.3931  12.4013  15.8706  17.1497  20.7932  20.9302  22.6777
    23.9391  24.9542  26.4514  28.6975  28.8384  28.9629  29.1279  29.6583
    29.7043  29.7324  29.8612  30.9549  31.0097  31.1016  31.1583  31.2032
    32.9728  33.0545  33.1665  33.2512  33.7439  33.8126  34.0065  34.5502
    34.5605  34.5750  34.6724  35.4823  35.6693  35.8170  35.8786  35.9672
    36.1639  36.2563  36.3975  36.6012

          k = 0.0464 0.0803 0.0000 (  2735 PWs)   bands (ev):

   -21.7587  -9.8104  -5.9744  -5.7123   0.8496   1.3556   1.4515   2.5267
     2.8950   4.6257   5.2532   6.1406   6.6419   7.6037   8.4274   8.6613
    10.6202  11.3675  12.3744  15.8475  17.1231  20.7358  20.9240  22.6511
    24.1169  25.0350  26.4258  28.7176  28.9391  29.0880  29.3728  29.9171
    29.9591  29.9864  30.1064  30.9719  31.2317  31.2652  31.3491  31.4448
    32.9475  33.2858  33.3199  33.4664  33.8254  33.8545  34.0764  34.5244
    34.5403  34.5431  34.6464  35.4076  35.7318  35.8116  35.8634  35.9432
    36.1529  36.3800  36.6178  36.7888

          k = 0.0435 0.0753 0.0000 (  2739 PWs)   bands (ev):

   -21.7772  -9.8325  -5.9066  -5.6728   0.8241   1.3299   1.4257   2.5012
     2.8695   4.6004   5.2284   6.1269   6.5744   7.5787   8.4018   8.7236
    10.5841  11.3434  12.3491  15.8257  17.0980  20.6809  20.9166  22.6261
    24.2946  25.1156  26.4020  28.7355  28.9154  29.3391  29.6203  30.1776
    30.2157  30.2421  30.3572  30.8246  31.4722  31.5221  31.5971  31.6860
    32.8521  33.4333  33.5173  33.6080  33.9136  34.0203  34.1798  34.5006
    34.5095  34.5347  34.6240  35.3461  35.7587  35.7992  35.8437  35.9193
    36.1307  36.5368  36.8287  36.9750

          k = 0.0406 0.0703 0.0000 (  2733 PWs)   bands (ev):

   -21.7945  -9.8532  -5.8423  -5.6356   0.8003   1.3058   1.4017   2.4773
     2.8456   4.5767   5.2051   6.1143   6.5099   7.5554   8.3777   8.7823
    10.5510  11.3208  12.3254  15.8053  17.0746  20.6287  20.9084  22.6028
    24.4711  25.1959  26.3800  28.7535  28.8931  29.5914  29.8689  30.4396
    30.4739  30.4978  30.6119  30.6754  31.7202  31.7803  31.8451  31.9208
    32.7239  33.5077  33.6487  33.7460  34.1027  34.2048  34.2979  34.4801
    34.4865  34.5533  34.6068  35.3010  35.7676  35.7831  35.8228  35.8958
    36.1071  36.7047  36.9845  37.1337

          k = 0.0377 0.0653 0.0000 (  2729 PWs)   bands (ev):

   -21.8106  -9.8725  -5.7815  -5.6009   0.7782   1.2834   1.3793   2.4551
     2.8234   4.5546   5.1835   6.1026   6.4484   7.5337   8.3554   8.8373
    10.5205  11.2998  12.3033  15.7861  17.0528  20.5795  20.8997  22.5812
    24.6449  25.2754  26.3600  28.7732  28.8723  29.8450  30.1185  30.5225
    30.7034  30.7338  30.7616  30.8697  31.9705  32.0398  32.0924  32.1255
    32.6041  33.5544  33.6505  33.9673  34.3210  34.3584  34.3721  34.4724
    34.4990  34.5985  34.6466  35.2778  35.7642  35.7693  35.8016  35.8728
    36.0859  36.8656  36.9554  37.1787

          k = 0.0348 0.0602 0.0000 (  2729 PWs)   bands (ev):

   -21.8256  -9.8904  -5.7244  -5.5686   0.7577   1.2627   1.3586   2.4345
     2.8028   4.5342   5.1634   6.0919   6.3903   7.5136   8.3347   8.8885
    10.4927  11.2804  12.2829  15.7684  17.0326  20.5333  20.8909  22.5612
    24.8146  25.3538  26.3419  28.7959  28.8529  30.0997  30.3687  30.3795
    30.9687  30.9951  31.0212  31.1295  32.1930  32.2221  32.3002  32.3375
    32.6092  33.5856  33.6424  34.1691  34.3883  34.3905  34.4137  34.6026
    34.6094  34.6170  34.8164  35.2879  35.7424  35.7702  35.7799  35.8508
    36.0694  36.7599  37.0004  37.0515

          k = 0.0319 0.0552 0.0000 (  2729 PWs)   bands (ev):

   -21.8393  -9.9068  -5.6713  -5.5388   0.7388   1.2436   1.3395   2.4155
     2.7839   4.5154   5.1450   6.0821   6.3358   7.4951   8.3156   8.9359
    10.4674  11.2624  12.2640  15.7520  17.0139  20.4902  20.8822  22.5428
    24.9790  25.4306  26.3259  28.8228  28.8351  30.2408  30.3555  30.6194
    31.2357  31.2579  31.2833  31.3902  32.0777  32.4746  32.5614  32.5782
    32.7907  33.6115  33.6319  34.3213  34.3779  34.3838  34.4045  34.6673
    34.7406  34.8378  35.0157  35.3480  35.7159  35.7566  35.7749  35.8300
    36.0605  36.5232  36.8633  37.0809

          k = 0.0290 0.0502 0.0000 (  2729 PWs)   bands (ev):

   -21.8518  -9.9218  -5.6221  -5.5115   0.7216   1.2262   1.3221   2.3982
     2.7666   4.4983   5.1281   6.0732   6.2852   7.4782   8.2982   8.9794
    10.4445  11.2461  12.2469  15.7369  16.9969  20.4506  20.8738  22.5261
    25.1361  25.5053  26.3121  28.8189  28.8548  30.1085  30.6122  30.8702
    31.5042  31.5220  31.5469  31.6433  31.9157  32.7272  32.8096  32.8224
    33.0236  33.6217  33.6407  34.3616  34.3736  34.3896  34.3943  34.7977
    34.8158  35.0748  35.2208  35.4632  35.6809  35.7278  35.7884  35.8117
    36.0654  36.2888  36.6687  37.0548

          k = 0.0261 0.0452 0.0000 (  2723 PWs)   bands (ev):

   -21.8632  -9.9354  -5.5771  -5.4866   0.7060   1.2105   1.3064   2.3826
     2.7510   4.4828   5.1129   6.0653   6.2387   7.4629   8.2824   9.0191
    10.4240  11.2312  12.2313  15.7233  16.9815  20.4143  20.8658  22.5110
    25.2847  25.5772  26.3008  28.8042  28.8928  29.9836  30.8698  31.1207
    31.6871  31.7743  31.7873  31.8118  31.9505  32.9792  33.0224  33.0813
    33.2677  33.6144  33.6852  34.3468  34.3618  34.3748  34.4178  34.8512
    34.9638  35.2907  35.4142  35.6043  35.6316  35.6834  35.7983  35.8180
    36.0916  36.0980  36.4909  36.8904

          k = 0.0232 0.0402 0.0000 (  2725 PWs)   bands (ev):

   -21.8734  -9.9476  -5.5365  -5.4643   0.6920   1.1964   1.2923   2.3686
     2.7370   4.4689   5.0992   6.0581   6.1964   7.4492   8.2683   9.0546
    10.4059  11.2180  12.2174  15.7111  16.9677  20.3816  20.8583  22.4974
    25.4224  25.6455  26.2922  28.7910  28.9373  29.8670  31.1279  31.3703
    31.5081  32.0459  32.0533  32.0778  32.2062  33.1984  33.2293  33.3298
    33.5123  33.6182  33.7637  34.3355  34.3501  34.3608  34.4256  34.8676
    35.1205  35.3993  35.5238  35.6037  35.6440  35.7213  35.7966  35.8746
    35.9985  36.1852  36.3498  36.6524

          k = 0.0203 0.0351 0.0000 (  2733 PWs)   bands (ev):

   -21.8823  -9.9583  -5.5004  -5.4446   0.6797   1.1839   1.2798   2.3562
     2.7247   4.4566   5.0872   6.0519   6.1586   7.4371   8.2558   9.0861
    10.3900  11.2063  12.2051  15.7003  16.9555  20.3525  20.8516  22.4855
    25.5472  25.7093  26.2865  28.7794  28.9889  29.7600  31.3201  31.3861
    31.6179  32.3187  32.3196  32.3446  32.4735  33.3189  33.4750  33.5060
    33.6932  33.7500  33.8940  34.3303  34.3392  34.3477  34.4314  34.8799
    35.2412  35.2713  35.4235  35.6731  35.6824  35.7834  35.8143  35.9696
    36.0598  36.2327  36.3350  36.3695

          k = 0.0174 0.0301 0.0000 (  2733 PWs)   bands (ev):

   -21.8901  -9.9677  -5.4688  -5.4275   0.6691   1.1731   1.2690   2.3455
     2.7140   4.4460   5.0768   6.0465   6.1255   7.4266   8.2450   9.1134
    10.3764  11.1961  12.1944  15.6909  16.9449  20.3272  20.8456  22.4752
    25.6571  25.7677  26.2842  28.7693  29.0476  29.6638  31.1355  31.6440
    31.8625  32.5850  32.5929  32.6117  32.7434  33.3884  33.5396  33.7115
    33.9064  33.9674  34.0673  34.3319  34.3351  34.3382  34.4431  34.8992
    35.0595  35.2762  35.3137  35.6851  35.6973  35.8017  35.8153  36.0265
    36.0551  36.0952  36.1434  36.2490

          k = 0.0145 0.0251 0.0000 (  2729 PWs)   bands (ev):

   -21.8967  -9.9755  -5.4418  -5.4130   0.6600   1.1640   1.2599   2.3364
     2.7049   4.4370   5.0680   6.0421   6.0973   7.4178   8.2359   9.1367
    10.3649  11.1875  12.1854  15.6830  16.9360  20.3056  20.8404  22.4664
    25.7503  25.8198  26.2855  28.7608  29.1126  29.5797  30.9590  31.9005
    32.1017  32.8467  32.8678  32.8784  33.0142  33.4298  33.5380  33.9279
    34.1301  34.1374  34.2291  34.3212  34.3530  34.3815  34.4714  34.8496
    34.9392  35.1164  35.3352  35.6328  35.6845  35.7533  35.7636  35.7747
    35.8890  35.9073  36.0039  36.2638

          k = 0.0116 0.0201 0.0000 (  2725 PWs)   bands (ev):

   -21.9020  -9.9820  -5.4196  -5.4010   0.6527   1.1566   1.2525   2.3290
     2.6975   4.4296   5.0607   6.0385   6.0740   7.4105   8.2284   9.1558
    10.3556  11.1805  12.1780  15.6765  16.9287  20.2879  20.8361  22.4593
    25.8254  25.8644  26.2903  28.7538  29.1819  29.5087  30.7952  32.1542
    32.3323  33.0953  33.1427  33.1432  33.2845  33.4673  33.5289  34.1011
    34.2028  34.2622  34.2732  34.3231  34.4738  34.4739  34.5360  34.7260
    34.9884  35.0210  35.2877  35.4321  35.4582  35.6125  35.6991  35.7003
    35.7168  35.8583  35.8872  36.3876

          k = 0.0087 0.0151 0.0000 (  2717 PWs)   bands (ev):

   -21.9062  -9.9870  -5.4022  -5.3917   0.6469   1.1508   1.2467   2.3233
     2.6918   4.4239   5.0551   6.0357   6.0557   7.4049   8.2226   9.1708
    10.3483  11.1750  12.1723  15.6714  16.9230  20.2741  20.8327  22.4538
    25.8817  25.9006  26.2975  28.7484  29.2515  29.4520  30.6501  32.4017
    32.5477  33.2893  33.4030  33.4131  33.5149  33.5479  33.5515  34.1813
    34.2075  34.2266  34.2391  34.3380  34.5280  34.5546  34.6494  34.8262
    34.9760  35.1471  35.1566  35.1822  35.1966  35.3662  35.6104  35.6916
    35.7050  35.8313  35.8650  36.3374

          k = 0.0058 0.0100 0.0000 (  2715 PWs)   bands (ev):

   -21.9092  -9.9906  -5.3897  -5.3850   0.6428   1.1466   1.2425   2.3191
     2.6877   4.4198   5.0511   6.0337   6.0426   7.4009   8.2184   9.1814
    10.3432  11.1711  12.1682  15.6678  16.9189  20.2641  20.8302  22.4498
    25.9199  25.9271  26.3054  28.7446  29.3144  29.4107  30.5322  32.6358
    32.7361  33.3662  33.4796  33.6496  33.6753  33.7319  33.8071  34.0381
    34.1948  34.2432  34.2641  34.3287  34.4752  34.5896  34.7362  34.8520
    34.8802  35.0028  35.0905  35.1006  35.1911  35.3672  35.5956  35.6844
    35.6953  35.8023  35.8597  36.1563

          k = 0.0029 0.0050 0.0000 (  2711 PWs)   bands (ev):

   -21.9110  -9.9927  -5.3822  -5.3810   0.6403   1.1441   1.2400   2.3167
     2.6852   4.4174   5.0487   6.0325   6.0347   7.3985   8.2159   9.1878
    10.3401  11.1687  12.1657  15.6656  16.9165  20.2582  20.8288  22.4474
    25.9418  25.9433  26.3116  28.7422  29.3601  29.3856  30.4531  32.8347
    32.8745  33.3824  33.4261  33.7976  33.8566  33.9373  34.0182  34.0579
    34.1650  34.2861  34.3132  34.3226  34.4045  34.5669  34.5915  34.6168
    34.6638  34.8853  35.0362  35.3303  35.3756  35.5575  35.6235  35.6686
    35.6719  35.7613  35.8631  35.9579

          k = 0.0000 0.0000 0.0000 (  2707 PWs)   bands (ev):

   -21.9116  -9.9934  -5.3797  -5.3797   0.6395   1.1433   1.2392   2.3158
     2.6844   4.4166   5.0479   6.0321   6.0321   7.3976   8.2151   9.1900
    10.3391  11.1680  12.1649  15.6649  16.9157  20.2562  20.8283  22.4466
    25.9489  25.9489  26.3139  28.7415  29.3772  29.3772  30.4248  32.9279
    32.9279  33.3839  33.3839  33.7802  33.9482  34.0102  34.0967  34.2682
    34.2682  34.2832  34.2832  34.3783  34.3783  34.3887  34.4817  34.4817
    34.5635  34.8061  35.0794  35.5161  35.5161  35.6078  35.6078  35.6594
    35.6594  35.7386  35.8265  35.8752

     Writing all to output data dir ./out/graphene.save/ :
     XML data file, pseudopotentials, collected wavefunctions
 
     init_run     :      0.04s CPU      0.06s WALL (       1 calls)
     electrons    :    106.84s CPU    112.82s WALL (       1 calls)

     Called by init_run:
     wfcinit      :      0.00s CPU      0.01s WALL (       1 calls)
     wfcinit:atom :      0.00s CPU      0.00s WALL (     274 calls)
     wfcinit:wfcr :      1.99s CPU      2.12s WALL (     274 calls)
     potinit      :      0.01s CPU      0.02s WALL (       1 calls)
     hinit0       :      0.01s CPU      0.01s WALL (       1 calls)

     Called by electrons:
     c_bands      :    106.83s CPU    112.81s WALL (       1 calls)
     v_of_rho     :      0.00s CPU      0.00s WALL (       1 calls)
     v_h          :      0.00s CPU      0.00s WALL (       1 calls)
     v_xc         :      0.00s CPU      0.00s WALL (       1 calls)
     newd         :      0.00s CPU      0.00s WALL (       1 calls)
     PAW_pot      :      0.01s CPU      0.02s WALL (       1 calls)

     Called by c_bands:
     init_us_2    :      0.00s CPU      0.01s WALL (     274 calls)
     cegterg      :    102.34s CPU    105.02s WALL (     794 calls)

     Called by sum_band:

     Called by *egterg:
     cdiaghg      :     51.83s CPU     52.13s WALL (   13907 calls)
     cegterg:over :      4.00s CPU      4.29s WALL (   13633 calls)
     cegterg:upda :      0.91s CPU      0.92s WALL (   13633 calls)
     cegterg:last :      2.16s CPU      2.17s WALL (    6358 calls)
     h_psi        :     41.65s CPU     43.80s WALL (   14701 calls)
     s_psi        :      0.22s CPU      0.23s WALL (   14701 calls)
     g_psi        :      0.14s CPU      0.14s WALL (   13633 calls)

     Called by h_psi:
     h_psi:calbec :      0.88s CPU      0.92s WALL (   14701 calls)
     vloc_psi     :     40.37s CPU     42.47s WALL (   14701 calls)
     add_vuspsi   :      0.23s CPU      0.24s WALL (   14701 calls)

     General routines
     calbec       :      0.84s CPU      0.88s WALL (   14701 calls)
     fft          :      0.00s CPU      0.01s WALL (      12 calls)
     fftw         :     37.40s CPU     39.34s WALL (  825366 calls)
     davcio       :      0.04s CPU      0.05s WALL (     548 calls)
 
     Parallel routines

     PAW routines
     PAW_pot      :      0.01s CPU      0.02s WALL (       1 calls)
 
     PWSCF        :   1m48.77s CPU   2m 2.63s WALL

 
   This run was terminated on:   5: 5:59  26Jun2024            

=------------------------------------------------------------------------------=
   JOB DONE.
=------------------------------------------------------------------------------=
