
     Program PWSCF v.7.3.1 starts on 26Jun2024 at  5: 6:13 

     This program is part of the open-source Quantum ESPRESSO suite
     for quantum simulation of materials; please cite
         "P. Giannozzi et al., J. Phys.:Condens. Matter 21 395502 (2009);
         "P. Giannozzi et al., J. Phys.:Condens. Matter 29 465901 (2017);
         "P. Giannozzi et al., J. Chem. Phys. 152 154105 (2020);
          URL http://www.quantum-espresso.org", 
     in publications or presentations arising from this work. More details at
     http://www.quantum-espresso.org/quote

     Parallel version (MPI), running on    22 processors

     MPI processes distributed on     1 nodes
     187430 MiB available memory on the printing compute node when the environment starts
 
     Waiting for input...
     Reading input from standard input

     Current dimensions of program PWSCF are:
     Max number of different atomic species (ntypx) = 10
     Max number of k-points (npk) =  40000
     Max angular momentum in pseudopotentials (lmaxx) =  4
     file C.pbe-n-kjpaw_psl.0.1.UPF: wavefunction(s)  2P renormalized
     Message from routine set_cutoff:
     ecutrho < 4*ecutwfc, are you sure?

     Atomic positions and unit cell read from directory:
     ./out/graphene.save/
 
 
     R & G space division:  proc/nbgrp/npool/nimage =      22
     Subspace diagonalization in iterative solution of the eigenvalue problem:
     a serial algorithm will be used

 
     Parallelization info
     --------------------
     sticks:   dense  smooth     PW     G-vecs:    dense   smooth      PW
     Min           9       9      4                  941      941     312
     Max          10      10      5                  988      988     341
     Sum         211     211    109                21175    21175    7351
 
     Using Slab Decomposition
 


     bravais-lattice index     =            0
     lattice parameter (alat)  =       4.6487  a.u.
     unit-cell volume          =     707.3387 (a.u.)^3
     number of atoms/cell      =            2
     number of atomic types    =            1
     number of electrons       =         8.00
     number of Kohn-Sham states=           60
     kinetic-energy cutoff     =      37.0000  Ry
     charge density cutoff     =     147.0000  Ry
     Exchange-correlation= SLA  PW   PBX  PBC
                           (   1   4   3   4   0   0   0)

     celldm(1)=   4.648726  celldm(2)=   0.000000  celldm(3)=   0.000000
     celldm(4)=   0.000000  celldm(5)=   0.000000  celldm(6)=   0.000000

     crystal axes: (cart. coord. in units of alat)
               a(1) = (   1.000000   0.000000   0.000000 )  
               a(2) = (  -0.500000   0.866025   0.000000 )  
               a(3) = (   0.000000   0.000000   8.130081 )  

     reciprocal axes: (cart. coord. in units 2 pi/alat)
               b(1) = (  1.000000  0.577350  0.000000 )  
               b(2) = (  0.000000  1.154701  0.000000 )  
               b(3) = (  0.000000  0.000000  0.123000 )  


     PseudoPot. # 1 for C  read from file:
     ../../pseudo/C.pbe-n-kjpaw_psl.0.1.UPF
     MD5 check sum: c849119b86527ef673bbe9c4f1f1b6ab
     Pseudo is Projector augmented-wave + core cor, Zval =  4.0
     Generated using "atomic" code by A. Dal Corso  v.5.0.2 svn rev. 9415
     Shape of augmentation charge: BESSEL
     Using radial grid of 1073 points,  4 beta functions with: 
                l(1) =   0
                l(2) =   0
                l(3) =   1
                l(4) =   1
     Q(r) pseudized with 0 coefficients 


     atomic species   valence    mass     pseudopotential
     C                 4.00    12.01100     C ( 1.00)

     No symmetry found


                                    s                        frac. trans.

      isym =  1     identity                                     

 cryst.   s( 1) = (     1          0          0      )
                  (     0          1          0      )
                  (     0          0          1      )

 cart.    s( 1) = (  1.0000000  0.0000000  0.0000000 )
                  (  0.0000000  1.0000000  0.0000000 )
                  (  0.0000000  0.0000000  1.0000000 )


   Cartesian axes

     site n.     atom                  positions (alat units)
         1        C      tau(   1) = (   0.0000000   0.5773503   0.0000000  )
         2        C      tau(   2) = (   0.5000000   0.2886751   0.0000000  )

   Crystallographic axes

     site n.     atom                  positions (cryst. coord.)
         1        C      tau(   1) = (  0.3333333  0.6666667  0.0000000  )
         2        C      tau(   2) = (  0.6666667  0.3333333  0.0000000  )

     number of k points=    81  Marzari-Vanderbilt smearing, width (Ry)=  0.0100
                       cart. coord. in units 2pi/alat
        k(    1) = (   0.0000000   0.0000000   0.0000000), wk =   0.0246914
        k(    2) = (   0.0000000   0.1283001   0.0000000), wk =   0.0246914
        k(    3) = (   0.0000000   0.2566001   0.0000000), wk =   0.0246914
        k(    4) = (   0.0000000   0.3849002   0.0000000), wk =   0.0246914
        k(    5) = (   0.0000000   0.5132002   0.0000000), wk =   0.0246914
        k(    6) = (   0.0000000   0.6415003   0.0000000), wk =   0.0246914
        k(    7) = (   0.0000000   0.7698004   0.0000000), wk =   0.0246914
        k(    8) = (   0.0000000   0.8981004   0.0000000), wk =   0.0246914
        k(    9) = (   0.0000000   1.0264005   0.0000000), wk =   0.0246914
        k(   10) = (   0.1111111   0.0641500   0.0000000), wk =   0.0246914
        k(   11) = (   0.1111111   0.1924501   0.0000000), wk =   0.0246914
        k(   12) = (   0.1111111   0.3207501   0.0000000), wk =   0.0246914
        k(   13) = (   0.1111111   0.4490502   0.0000000), wk =   0.0246914
        k(   14) = (   0.1111111   0.5773503   0.0000000), wk =   0.0246914
        k(   15) = (   0.1111111   0.7056503   0.0000000), wk =   0.0246914
        k(   16) = (   0.1111111   0.8339504   0.0000000), wk =   0.0246914
        k(   17) = (   0.1111111   0.9622505   0.0000000), wk =   0.0246914
        k(   18) = (   0.1111111   1.0905505   0.0000000), wk =   0.0246914
        k(   19) = (   0.2222222   0.1283001   0.0000000), wk =   0.0246914
        k(   20) = (   0.2222222   0.2566001   0.0000000), wk =   0.0246914
        k(   21) = (   0.2222222   0.3849002   0.0000000), wk =   0.0246914
        k(   22) = (   0.2222222   0.5132002   0.0000000), wk =   0.0246914
        k(   23) = (   0.2222222   0.6415003   0.0000000), wk =   0.0246914
        k(   24) = (   0.2222222   0.7698004   0.0000000), wk =   0.0246914
        k(   25) = (   0.2222222   0.8981004   0.0000000), wk =   0.0246914
        k(   26) = (   0.2222222   1.0264005   0.0000000), wk =   0.0246914
        k(   27) = (   0.2222222   1.1547005   0.0000000), wk =   0.0246914
        k(   28) = (   0.3333333   0.1924501   0.0000000), wk =   0.0246914
        k(   29) = (   0.3333333   0.3207501   0.0000000), wk =   0.0246914
        k(   30) = (   0.3333333   0.4490502   0.0000000), wk =   0.0246914
        k(   31) = (   0.3333333   0.5773503   0.0000000), wk =   0.0246914
        k(   32) = (   0.3333333   0.7056503   0.0000000), wk =   0.0246914
        k(   33) = (   0.3333333   0.8339504   0.0000000), wk =   0.0246914
        k(   34) = (   0.3333333   0.9622505   0.0000000), wk =   0.0246914
        k(   35) = (   0.3333333   1.0905505   0.0000000), wk =   0.0246914
        k(   36) = (   0.3333333   1.2188506   0.0000000), wk =   0.0246914
        k(   37) = (   0.4444444   0.2566001   0.0000000), wk =   0.0246914
        k(   38) = (   0.4444444   0.3849002   0.0000000), wk =   0.0246914
        k(   39) = (   0.4444444   0.5132002   0.0000000), wk =   0.0246914
        k(   40) = (   0.4444444   0.6415003   0.0000000), wk =   0.0246914
        k(   41) = (   0.4444444   0.7698004   0.0000000), wk =   0.0246914
        k(   42) = (   0.4444444   0.8981004   0.0000000), wk =   0.0246914
        k(   43) = (   0.4444444   1.0264005   0.0000000), wk =   0.0246914
        k(   44) = (   0.4444444   1.1547005   0.0000000), wk =   0.0246914
        k(   45) = (   0.4444444   1.2830006   0.0000000), wk =   0.0246914
        k(   46) = (   0.5555556   0.3207502   0.0000000), wk =   0.0246914
        k(   47) = (   0.5555556   0.4490502   0.0000000), wk =   0.0246914
        k(   48) = (   0.5555556   0.5773503   0.0000000), wk =   0.0246914
        k(   49) = (   0.5555556   0.7056503   0.0000000), wk =   0.0246914
        k(   50) = (   0.5555556   0.8339504   0.0000000), wk =   0.0246914
        k(   51) = (   0.5555556   0.9622505   0.0000000), wk =   0.0246914
        k(   52) = (   0.5555556   1.0905505   0.0000000), wk =   0.0246914
        k(   53) = (   0.5555556   1.2188506   0.0000000), wk =   0.0246914
        k(   54) = (   0.5555556   1.3471506   0.0000000), wk =   0.0246914
        k(   55) = (   0.6666667   0.3849002   0.0000000), wk =   0.0246914
        k(   56) = (   0.6666667   0.5132002   0.0000000), wk =   0.0246914
        k(   57) = (   0.6666667   0.6415003   0.0000000), wk =   0.0246914
        k(   58) = (   0.6666667   0.7698004   0.0000000), wk =   0.0246914
        k(   59) = (   0.6666667   0.8981004   0.0000000), wk =   0.0246914
        k(   60) = (   0.6666667   1.0264005   0.0000000), wk =   0.0246914
        k(   61) = (   0.6666667   1.1547005   0.0000000), wk =   0.0246914
        k(   62) = (   0.6666667   1.2830006   0.0000000), wk =   0.0246914
        k(   63) = (   0.6666667   1.4113007   0.0000000), wk =   0.0246914
        k(   64) = (   0.7777778   0.4490502   0.0000000), wk =   0.0246914
        k(   65) = (   0.7777778   0.5773503   0.0000000), wk =   0.0246914
        k(   66) = (   0.7777778   0.7056503   0.0000000), wk =   0.0246914
        k(   67) = (   0.7777778   0.8339504   0.0000000), wk =   0.0246914
        k(   68) = (   0.7777778   0.9622504   0.0000000), wk =   0.0246914
        k(   69) = (   0.7777778   1.0905505   0.0000000), wk =   0.0246914
        k(   70) = (   0.7777778   1.2188506   0.0000000), wk =   0.0246914
        k(   71) = (   0.7777778   1.3471506   0.0000000), wk =   0.0246914
        k(   72) = (   0.7777778   1.4754507   0.0000000), wk =   0.0246914
        k(   73) = (   0.8888889   0.5132002   0.0000000), wk =   0.0246914
        k(   74) = (   0.8888889   0.6415003   0.0000000), wk =   0.0246914
        k(   75) = (   0.8888889   0.7698004   0.0000000), wk =   0.0246914
        k(   76) = (   0.8888889   0.8981004   0.0000000), wk =   0.0246914
        k(   77) = (   0.8888889   1.0264005   0.0000000), wk =   0.0246914
        k(   78) = (   0.8888889   1.1547005   0.0000000), wk =   0.0246914
        k(   79) = (   0.8888889   1.2830006   0.0000000), wk =   0.0246914
        k(   80) = (   0.8888889   1.4113007   0.0000000), wk =   0.0246914
        k(   81) = (   0.8888889   1.5396007   0.0000000), wk =   0.0246914

                       cryst. coord.
        k(    1) = (   0.0000000   0.0000000   0.0000000), wk =   0.0246914
        k(    2) = (   0.0000000   0.1111111   0.0000000), wk =   0.0246914
        k(    3) = (   0.0000000   0.2222222   0.0000000), wk =   0.0246914
        k(    4) = (   0.0000000   0.3333333   0.0000000), wk =   0.0246914
        k(    5) = (   0.0000000   0.4444444   0.0000000), wk =   0.0246914
        k(    6) = (   0.0000000   0.5555556   0.0000000), wk =   0.0246914
        k(    7) = (   0.0000000   0.6666667   0.0000000), wk =   0.0246914
        k(    8) = (   0.0000000   0.7777778   0.0000000), wk =   0.0246914
        k(    9) = (   0.0000000   0.8888889   0.0000000), wk =   0.0246914
        k(   10) = (   0.1111111   0.0000000   0.0000000), wk =   0.0246914
        k(   11) = (   0.1111111   0.1111111   0.0000000), wk =   0.0246914
        k(   12) = (   0.1111111   0.2222222   0.0000000), wk =   0.0246914
        k(   13) = (   0.1111111   0.3333333   0.0000000), wk =   0.0246914
        k(   14) = (   0.1111111   0.4444444   0.0000000), wk =   0.0246914
        k(   15) = (   0.1111111   0.5555556   0.0000000), wk =   0.0246914
        k(   16) = (   0.1111111   0.6666667   0.0000000), wk =   0.0246914
        k(   17) = (   0.1111111   0.7777778   0.0000000), wk =   0.0246914
        k(   18) = (   0.1111111   0.8888889   0.0000000), wk =   0.0246914
        k(   19) = (   0.2222222   0.0000000   0.0000000), wk =   0.0246914
        k(   20) = (   0.2222222   0.1111111   0.0000000), wk =   0.0246914
        k(   21) = (   0.2222222   0.2222222   0.0000000), wk =   0.0246914
        k(   22) = (   0.2222222   0.3333333   0.0000000), wk =   0.0246914
        k(   23) = (   0.2222222   0.4444444   0.0000000), wk =   0.0246914
        k(   24) = (   0.2222222   0.5555556   0.0000000), wk =   0.0246914
        k(   25) = (   0.2222222   0.6666667   0.0000000), wk =   0.0246914
        k(   26) = (   0.2222222   0.7777778   0.0000000), wk =   0.0246914
        k(   27) = (   0.2222222   0.8888889   0.0000000), wk =   0.0246914
        k(   28) = (   0.3333333   0.0000000   0.0000000), wk =   0.0246914
        k(   29) = (   0.3333333   0.1111111   0.0000000), wk =   0.0246914
        k(   30) = (   0.3333333   0.2222222   0.0000000), wk =   0.0246914
        k(   31) = (   0.3333333   0.3333333   0.0000000), wk =   0.0246914
        k(   32) = (   0.3333333   0.4444444   0.0000000), wk =   0.0246914
        k(   33) = (   0.3333333   0.5555556   0.0000000), wk =   0.0246914
        k(   34) = (   0.3333333   0.6666667   0.0000000), wk =   0.0246914
        k(   35) = (   0.3333333   0.7777778   0.0000000), wk =   0.0246914
        k(   36) = (   0.3333333   0.8888889   0.0000000), wk =   0.0246914
        k(   37) = (   0.4444444   0.0000000   0.0000000), wk =   0.0246914
        k(   38) = (   0.4444444   0.1111111   0.0000000), wk =   0.0246914
        k(   39) = (   0.4444444   0.2222222   0.0000000), wk =   0.0246914
        k(   40) = (   0.4444444   0.3333333   0.0000000), wk =   0.0246914
        k(   41) = (   0.4444444   0.4444444   0.0000000), wk =   0.0246914
        k(   42) = (   0.4444444   0.5555556   0.0000000), wk =   0.0246914
        k(   43) = (   0.4444444   0.6666667   0.0000000), wk =   0.0246914
        k(   44) = (   0.4444444   0.7777778   0.0000000), wk =   0.0246914
        k(   45) = (   0.4444444   0.8888889   0.0000000), wk =   0.0246914
        k(   46) = (   0.5555556   0.0000000   0.0000000), wk =   0.0246914
        k(   47) = (   0.5555556   0.1111111   0.0000000), wk =   0.0246914
        k(   48) = (   0.5555556   0.2222222   0.0000000), wk =   0.0246914
        k(   49) = (   0.5555556   0.3333333   0.0000000), wk =   0.0246914
        k(   50) = (   0.5555556   0.4444444   0.0000000), wk =   0.0246914
        k(   51) = (   0.5555556   0.5555556   0.0000000), wk =   0.0246914
        k(   52) = (   0.5555556   0.6666667   0.0000000), wk =   0.0246914
        k(   53) = (   0.5555556   0.7777778   0.0000000), wk =   0.0246914
        k(   54) = (   0.5555556   0.8888889   0.0000000), wk =   0.0246914
        k(   55) = (   0.6666667   0.0000000   0.0000000), wk =   0.0246914
        k(   56) = (   0.6666667   0.1111111   0.0000000), wk =   0.0246914
        k(   57) = (   0.6666667   0.2222222   0.0000000), wk =   0.0246914
        k(   58) = (   0.6666667   0.3333333   0.0000000), wk =   0.0246914
        k(   59) = (   0.6666667   0.4444444   0.0000000), wk =   0.0246914
        k(   60) = (   0.6666667   0.5555556   0.0000000), wk =   0.0246914
        k(   61) = (   0.6666667   0.6666667   0.0000000), wk =   0.0246914
        k(   62) = (   0.6666667   0.7777778   0.0000000), wk =   0.0246914
        k(   63) = (   0.6666667   0.8888889   0.0000000), wk =   0.0246914
        k(   64) = (   0.7777778   0.0000000   0.0000000), wk =   0.0246914
        k(   65) = (   0.7777778   0.1111111   0.0000000), wk =   0.0246914
        k(   66) = (   0.7777778   0.2222222   0.0000000), wk =   0.0246914
        k(   67) = (   0.7777778   0.3333333   0.0000000), wk =   0.0246914
        k(   68) = (   0.7777778   0.4444444   0.0000000), wk =   0.0246914
        k(   69) = (   0.7777778   0.5555556   0.0000000), wk =   0.0246914
        k(   70) = (   0.7777778   0.6666667   0.0000000), wk =   0.0246914
        k(   71) = (   0.7777778   0.7777778   0.0000000), wk =   0.0246914
        k(   72) = (   0.7777778   0.8888889   0.0000000), wk =   0.0246914
        k(   73) = (   0.8888889   0.0000000   0.0000000), wk =   0.0246914
        k(   74) = (   0.8888889   0.1111111   0.0000000), wk =   0.0246914
        k(   75) = (   0.8888889   0.2222222   0.0000000), wk =   0.0246914
        k(   76) = (   0.8888889   0.3333333   0.0000000), wk =   0.0246914
        k(   77) = (   0.8888889   0.4444444   0.0000000), wk =   0.0246914
        k(   78) = (   0.8888889   0.5555556   0.0000000), wk =   0.0246914
        k(   79) = (   0.8888889   0.6666667   0.0000000), wk =   0.0246914
        k(   80) = (   0.8888889   0.7777778   0.0000000), wk =   0.0246914
        k(   81) = (   0.8888889   0.8888889   0.0000000), wk =   0.0246914

     Dense  grid:    21175 G-vectors     FFT dimensions: (  18,  18, 150)

     Dynamical RAM for                 wfc:       0.11 MB

     Dynamical RAM for     wfc (w. buffer):       0.11 MB

     Dynamical RAM for           str. fact:       0.01 MB

     Dynamical RAM for           local pot:       0.00 MB

     Dynamical RAM for          nlocal pot:       0.03 MB

     Dynamical RAM for                qrad:       0.28 MB

     Dynamical RAM for          rho,v,vnew:       0.10 MB

     Dynamical RAM for           G-vectors:       0.06 MB

     Dynamical RAM for          h,s,v(r/c):       0.66 MB

     Dynamical RAM for          <psi|beta>:       0.01 MB

     Dynamical RAM for                 psi:       0.22 MB

     Dynamical RAM for                hpsi:       0.22 MB

     Dynamical RAM for                spsi:       0.22 MB

     Dynamical RAM for      wfcinit/wfcrot:       0.31 MB

     Dynamical RAM for           addusdens:       0.67 MB

     Estimated static dynamical RAM per process >       0.71 MB

     Estimated max dynamical RAM per process >       2.05 MB

     Estimated total dynamical RAM >      45.21 MB

     Check: negative core charge=   -0.000014

     The potential is recalculated from file :
     ./out/graphene.save/charge-density


     negative rho (up, down):  1.261E-04 0.000E+00
     Starting wfcs are    8 randomized atomic wfcs +   52 random wfcs
     Checking if some PAW data can be deallocated... 

     Band Structure Calculation
     Davidson diagonalization with overlap

     Computing kpt #:     1  of    81
     total cpu time spent up to now is        1.1 secs

     Computing kpt #:     2  of    81
     total cpu time spent up to now is        1.5 secs

     Computing kpt #:     3  of    81
     total cpu time spent up to now is        1.9 secs

     Computing kpt #:     4  of    81
     total cpu time spent up to now is        2.2 secs

     Computing kpt #:     5  of    81
     total cpu time spent up to now is        2.5 secs

     Computing kpt #:     6  of    81
     total cpu time spent up to now is        2.9 secs

     Computing kpt #:     7  of    81
     total cpu time spent up to now is        3.2 secs

     Computing kpt #:     8  of    81
     total cpu time spent up to now is        3.5 secs

     Computing kpt #:     9  of    81
     total cpu time spent up to now is        4.0 secs

     Computing kpt #:    10  of    81
     total cpu time spent up to now is        4.4 secs

     Computing kpt #:    11  of    81
     total cpu time spent up to now is        4.9 secs

     Computing kpt #:    12  of    81
     total cpu time spent up to now is        5.2 secs

     Computing kpt #:    13  of    81
     total cpu time spent up to now is        5.6 secs

     Computing kpt #:    14  of    81
     total cpu time spent up to now is        5.9 secs

     Computing kpt #:    15  of    81
     total cpu time spent up to now is        6.2 secs

     Computing kpt #:    16  of    81
     total cpu time spent up to now is        6.6 secs

     Computing kpt #:    17  of    81
     total cpu time spent up to now is        7.0 secs

     Computing kpt #:    18  of    81
     total cpu time spent up to now is        7.5 secs

     Computing kpt #:    19  of    81
     total cpu time spent up to now is        7.9 secs

     Computing kpt #:    20  of    81
     total cpu time spent up to now is        8.2 secs

     Computing kpt #:    21  of    81
     c_bands:  1 eigenvalues not converged
     total cpu time spent up to now is        8.8 secs

     Computing kpt #:    22  of    81
     total cpu time spent up to now is        9.2 secs

     Computing kpt #:    23  of    81
     total cpu time spent up to now is        9.5 secs

     Computing kpt #:    24  of    81
     c_bands:  1 eigenvalues not converged
     total cpu time spent up to now is       10.2 secs

     Computing kpt #:    25  of    81
     total cpu time spent up to now is       10.5 secs

     Computing kpt #:    26  of    81
     total cpu time spent up to now is       10.8 secs

     Computing kpt #:    27  of    81
     total cpu time spent up to now is       11.3 secs

     Computing kpt #:    28  of    81
     total cpu time spent up to now is       11.6 secs

     Computing kpt #:    29  of    81
     total cpu time spent up to now is       12.0 secs

     Computing kpt #:    30  of    81
     total cpu time spent up to now is       12.3 secs

     Computing kpt #:    31  of    81
     total cpu time spent up to now is       12.6 secs

     Computing kpt #:    32  of    81
     total cpu time spent up to now is       13.0 secs

     Computing kpt #:    33  of    81
     total cpu time spent up to now is       13.3 secs

     Computing kpt #:    34  of    81
     total cpu time spent up to now is       13.6 secs

     Computing kpt #:    35  of    81
     total cpu time spent up to now is       14.0 secs

     Computing kpt #:    36  of    81
     total cpu time spent up to now is       14.4 secs

     Computing kpt #:    37  of    81
     total cpu time spent up to now is       14.7 secs

     Computing kpt #:    38  of    81
     total cpu time spent up to now is       15.0 secs

     Computing kpt #:    39  of    81
     total cpu time spent up to now is       15.4 secs

     Computing kpt #:    40  of    81
     total cpu time spent up to now is       15.7 secs

     Computing kpt #:    41  of    81
     total cpu time spent up to now is       16.0 secs

     Computing kpt #:    42  of    81
     total cpu time spent up to now is       16.3 secs

     Computing kpt #:    43  of    81
     total cpu time spent up to now is       16.7 secs

     Computing kpt #:    44  of    81
     total cpu time spent up to now is       17.2 secs

     Computing kpt #:    45  of    81
     total cpu time spent up to now is       17.6 secs

     Computing kpt #:    46  of    81
     total cpu time spent up to now is       17.9 secs

     Computing kpt #:    47  of    81
     total cpu time spent up to now is       18.3 secs

     Computing kpt #:    48  of    81
     total cpu time spent up to now is       18.7 secs

     Computing kpt #:    49  of    81
     total cpu time spent up to now is       19.0 secs

     Computing kpt #:    50  of    81
     total cpu time spent up to now is       19.4 secs

     Computing kpt #:    51  of    81
     total cpu time spent up to now is       19.7 secs

     Computing kpt #:    52  of    81
     total cpu time spent up to now is       20.0 secs

     Computing kpt #:    53  of    81
     total cpu time spent up to now is       20.4 secs

     Computing kpt #:    54  of    81
     total cpu time spent up to now is       20.7 secs

     Computing kpt #:    55  of    81
     total cpu time spent up to now is       21.0 secs

     Computing kpt #:    56  of    81
     total cpu time spent up to now is       21.4 secs

     Computing kpt #:    57  of    81
     total cpu time spent up to now is       21.7 secs

     Computing kpt #:    58  of    81
     total cpu time spent up to now is       22.0 secs

     Computing kpt #:    59  of    81
     total cpu time spent up to now is       22.4 secs

     Computing kpt #:    60  of    81
     total cpu time spent up to now is       22.8 secs

     Computing kpt #:    61  of    81
     total cpu time spent up to now is       23.1 secs

     Computing kpt #:    62  of    81
     total cpu time spent up to now is       23.4 secs

     Computing kpt #:    63  of    81
     total cpu time spent up to now is       23.8 secs

     Computing kpt #:    64  of    81
     total cpu time spent up to now is       24.1 secs

     Computing kpt #:    65  of    81
     total cpu time spent up to now is       24.5 secs

     Computing kpt #:    66  of    81
     total cpu time spent up to now is       24.9 secs

     Computing kpt #:    67  of    81
     total cpu time spent up to now is       25.3 secs

     Computing kpt #:    68  of    81
     c_bands:  1 eigenvalues not converged
     total cpu time spent up to now is       25.9 secs

     Computing kpt #:    69  of    81
     total cpu time spent up to now is       26.3 secs

     Computing kpt #:    70  of    81
     total cpu time spent up to now is       26.6 secs

     Computing kpt #:    71  of    81
     c_bands:  1 eigenvalues not converged
     total cpu time spent up to now is       27.2 secs

     Computing kpt #:    72  of    81
     total cpu time spent up to now is       27.6 secs

     Computing kpt #:    73  of    81
     total cpu time spent up to now is       28.0 secs

     Computing kpt #:    74  of    81
     total cpu time spent up to now is       28.5 secs

     Computing kpt #:    75  of    81
     total cpu time spent up to now is       28.9 secs

     Computing kpt #:    76  of    81
     total cpu time spent up to now is       29.3 secs

     Computing kpt #:    77  of    81
     total cpu time spent up to now is       29.6 secs

     Computing kpt #:    78  of    81
     total cpu time spent up to now is       30.0 secs

     Computing kpt #:    79  of    81
     total cpu time spent up to now is       30.3 secs

     Computing kpt #:    80  of    81
     total cpu time spent up to now is       30.7 secs

     Computing kpt #:    81  of    81
     total cpu time spent up to now is       31.1 secs

     ethr =  5.00E-12,  avg # of iterations = 45.2

     total cpu time spent up to now is       31.1 secs

     End of band structure calculation

          k = 0.0000 0.0000 0.0000 (  2707 PWs)   bands (ev):

   -21.9116  -9.9934  -5.3797  -5.3797   0.6395   1.1433   1.2392   2.3158
     2.6844   4.4166   5.0479   6.0321   6.0321   7.3976   8.2151   9.1900
    10.3391  11.1680  12.1649  15.6649  16.9157  20.2562  20.8283  22.4466
    25.9489  25.9489  26.3139  28.7415  29.3772  29.3772  30.4248  32.9279
    32.9279  33.3839  33.3839  33.7802  33.9482  34.0102  34.0967  34.2682
    34.2682  34.2832  34.2832  34.3783  34.3783  34.3887  34.4817  34.4817
    34.5635  34.8061  35.0794  35.5161  35.5161  35.6078  35.6078  35.6594
    35.6594  35.7386  35.8265  35.8752

     occupation numbers 
     1.0000   1.0000   1.0000   1.0000   0.0000   0.0000   0.0000   0.0000
     0.0000   0.0000   0.0000   0.0000   0.0000   0.0000   0.0000   0.0000
     0.0000   0.0000   0.0000   0.0000   0.0000   0.0000   0.0000   0.0000
     0.0000   0.0000   0.0000   0.0000   0.0000   0.0000   0.0000   0.0000
     0.0000   0.0000   0.0000   0.0000   0.0000   0.0000   0.0000   0.0000
     0.0000   0.0000   0.0000   0.0000   0.0000   0.0000   0.0000   0.0000
     0.0000   0.0000   0.0000   0.0000   0.0000   0.0000   0.0000   0.0000
     0.0000   0.0000   0.0000   0.0000

          k = 0.0000 0.1283 0.0000 (  2728 PWs)   bands (ev):

   -21.6192  -9.6437  -6.4972  -5.9551   1.0414   1.5494   1.6453   2.7192
     3.0874   4.8164   5.4390   6.1242   7.2428   7.7903   8.2046   8.6199
    10.8853  11.5488  12.5651  16.0097  17.3110  20.9430  21.1190  22.8412
    23.3599  24.0451  26.6712  26.8041  27.4091  27.5270  28.7993  28.8143
    28.9485  29.1222  29.9461  30.6029  30.9891  31.0058  31.0618  31.0814
    31.2147  31.2630  31.8991  32.3048  32.4040  32.6364  32.7146  33.7393
    33.9372  34.1898  34.5338  34.7992  35.0160  35.0790  36.0924  36.5508
    37.0842  37.2428  37.4766  37.5652

     occupation numbers 
     1.0000   1.0000   1.0000   1.0000   0.0000   0.0000   0.0000   0.0000
     0.0000   0.0000   0.0000   0.0000   0.0000   0.0000   0.0000   0.0000
     0.0000   0.0000   0.0000   0.0000   0.0000   0.0000   0.0000   0.0000
     0.0000   0.0000   0.0000   0.0000   0.0000   0.0000   0.0000   0.0000
     0.0000   0.0000   0.0000   0.0000   0.0000   0.0000   0.0000   0.0000
     0.0000   0.0000   0.0000   0.0000   0.0000   0.0000   0.0000   0.0000
     0.0000   0.0000   0.0000   0.0000   0.0000   0.0000   0.0000   0.0000
     0.0000   0.0000   0.0000   0.0000

          k = 0.0000 0.2566 0.0000 (  2718 PWs)   bands (ev):

   -20.7475  -9.0532  -8.6124  -7.1152   2.2459   2.7651   2.8638   3.9224
     4.2951   5.6960   5.8705   6.0525   6.6765   8.9684   9.8165  10.2389
    12.4873  12.6606  13.7540  16.8038  18.4677  19.1268  20.5688  21.2273
    21.3622  21.7900  22.3221  22.4323  23.2736  23.5046  24.2059  25.0580
    25.4006  27.2531  27.5148  28.1234  28.4117  28.4343  28.5532  28.6905
    28.8476  29.0293  29.2815  29.8576  30.0047  30.1640  30.4216  30.8465
    32.0919  32.1943  32.2295  32.2473  32.7386  32.9776  34.8633  35.1180
    35.2660  35.8183  36.4136  36.8896

     occupation numbers 
     1.0000   1.0000   1.0000   1.0000   0.0000   0.0000   0.0000   0.0000
     0.0000   0.0000   0.0000   0.0000   0.0000   0.0000   0.0000   0.0000
     0.0000   0.0000   0.0000   0.0000   0.0000   0.0000   0.0000   0.0000
     0.0000   0.0000   0.0000   0.0000   0.0000   0.0000   0.0000   0.0000
     0.0000   0.0000   0.0000   0.0000   0.0000   0.0000   0.0000   0.0000
     0.0000   0.0000   0.0000   0.0000   0.0000   0.0000   0.0000   0.0000
     0.0000   0.0000   0.0000   0.0000   0.0000   0.0000   0.0000   0.0000
     0.0000   0.0000   0.0000   0.0000

          k = 0.0000 0.3849 0.0000 (  2704 PWs)   bands (ev):

   -19.3176 -11.9924  -8.1400  -6.9799   2.6122   4.2428   4.8054   4.8897
     5.4478   5.9490   6.3285   8.0029   8.6615  10.8789  11.7902  13.5170
    13.9952  14.1503  15.4173  15.6727  15.7565  16.3798  16.4689  17.7120
    17.8454  19.0989  19.9646  20.2208  20.3718  20.4967  22.6803  22.8814
    24.6676  24.9173  25.8569  26.2089  26.2122  26.6736  26.9143  27.0184
    27.0582  27.1033  27.7347  28.0419  28.2113  28.3807  28.7206  29.6984
    30.3524  30.4318  30.6220  30.9412  31.8322  31.8437  32.5687  32.9714
    33.4136  33.7471  34.2216  35.2963

     occupation numbers 
     1.0000   1.0000   1.0000   1.0000   0.0000   0.0000   0.0000   0.0000
     0.0000   0.0000   0.0000   0.0000   0.0000   0.0000   0.0000   0.0000
     0.0000   0.0000   0.0000   0.0000   0.0000   0.0000   0.0000   0.0000
     0.0000   0.0000   0.0000   0.0000   0.0000   0.0000   0.0000   0.0000
     0.0000   0.0000   0.0000   0.0000   0.0000   0.0000   0.0000   0.0000
     0.0000   0.0000   0.0000   0.0000   0.0000   0.0000   0.0000   0.0000
     0.0000   0.0000   0.0000   0.0000   0.0000   0.0000   0.0000   0.0000
     0.0000   0.0000   0.0000   0.0000

          k = 0.0000 0.5132 0.0000 (  2670 PWs)   bands (ev):

   -17.4050 -14.7466  -8.7057  -5.1267  -0.1003   5.1525   7.0363   7.6214
     7.7380   8.7288   9.1297  10.5008  10.6731  11.2081  11.3772  11.4371
    12.2027  12.6880  13.3549  14.2350  14.4962  14.8548  16.0249  17.1537
    17.4557  17.4946  18.2350  19.1819  19.4274  19.8321  21.5668  22.0176
    23.1726  23.1776  24.9552  25.1791  25.7674  25.8016  26.0880  26.2411
    26.2481  26.3334  27.1017  27.3604  27.5658  27.5820  27.8095  28.2674
    29.3670  29.5163  29.5351  29.8099  30.1748  31.4031  32.3185  32.3763
    32.9261  32.9404  33.3201  34.2979

     occupation numbers 
     1.0000   1.0000   1.0000   1.0000   0.0000   0.0000   0.0000   0.0000
     0.0000   0.0000   0.0000   0.0000   0.0000   0.0000   0.0000   0.0000
     0.0000   0.0000   0.0000   0.0000   0.0000   0.0000   0.0000   0.0000
     0.0000   0.0000   0.0000   0.0000   0.0000   0.0000   0.0000   0.0000
     0.0000   0.0000   0.0000   0.0000   0.0000   0.0000   0.0000   0.0000
     0.0000   0.0000   0.0000   0.0000   0.0000   0.0000   0.0000   0.0000
     0.0000   0.0000   0.0000   0.0000   0.0000   0.0000   0.0000   0.0000
     0.0000   0.0000   0.0000   0.0000

          k = 0.0000 0.6415 0.0000 (  2670 PWs)   bands (ev):

   -17.4050 -14.7466  -8.7057  -5.1267  -0.1003   5.1525   7.0363   7.6214
     7.7380   8.7288   9.1297  10.5008  10.6731  11.2081  11.3772  11.4371
    12.2027  12.6880  13.3549  14.2350  14.4962  14.8548  16.0249  17.1537
    17.4557  17.4946  18.2350  19.1819  19.4274  19.8321  21.5668  22.0176
    23.1726  23.1776  24.9552  25.1791  25.7674  25.8016  26.0880  26.2411
    26.2481  26.3334  27.1017  27.3604  27.5658  27.5820  27.8095  28.2674
    29.3670  29.5163  29.5351  29.8099  30.1748  31.4031  32.3185  32.3763
    32.9261  32.9404  33.3201  34.2979

     occupation numbers 
     1.0000   1.0000   1.0000   1.0000   0.0000   0.0000   0.0000   0.0000
     0.0000   0.0000   0.0000   0.0000   0.0000   0.0000   0.0000   0.0000
     0.0000   0.0000   0.0000   0.0000   0.0000   0.0000   0.0000   0.0000
     0.0000   0.0000   0.0000   0.0000   0.0000   0.0000   0.0000   0.0000
     0.0000   0.0000   0.0000   0.0000   0.0000   0.0000   0.0000   0.0000
     0.0000   0.0000   0.0000   0.0000   0.0000   0.0000   0.0000   0.0000
     0.0000   0.0000   0.0000   0.0000   0.0000   0.0000   0.0000   0.0000
     0.0000   0.0000   0.0000   0.0000

          k = 0.0000 0.7698 0.0000 (  2704 PWs)   bands (ev):

   -19.3176 -11.9924  -8.1400  -6.9799   2.6122   4.2428   4.8054   4.8897
     5.4478   5.9490   6.3285   8.0029   8.6615  10.8789  11.7902  13.5170
    13.9952  14.1503  15.4173  15.6727  15.7565  16.3798  16.4689  17.7120
    17.8454  19.0989  19.9646  20.2208  20.3718  20.4967  22.6803  22.8814
    24.6676  24.9173  25.8569  26.2089  26.2122  26.6736  26.9143  27.0184
    27.0582  27.1033  27.7347  28.0419  28.2113  28.3807  28.7206  29.6984
    30.3524  30.4318  30.6220  30.9412  31.8322  31.8437  32.5687  32.9714
    33.4136  33.7471  34.2216  35.2963

     occupation numbers 
     1.0000   1.0000   1.0000   1.0000   0.0000   0.0000   0.0000   0.0000
     0.0000   0.0000   0.0000   0.0000   0.0000   0.0000   0.0000   0.0000
     0.0000   0.0000   0.0000   0.0000   0.0000   0.0000   0.0000   0.0000
     0.0000   0.0000   0.0000   0.0000   0.0000   0.0000   0.0000   0.0000
     0.0000   0.0000   0.0000   0.0000   0.0000   0.0000   0.0000   0.0000
     0.0000   0.0000   0.0000   0.0000   0.0000   0.0000   0.0000   0.0000
     0.0000   0.0000   0.0000   0.0000   0.0000   0.0000   0.0000   0.0000
     0.0000   0.0000   0.0000   0.0000

          k = 0.0000 0.8981 0.0000 (  2718 PWs)   bands (ev):

   -20.7475  -9.0532  -8.6124  -7.1152   2.2459   2.7651   2.8638   3.9224
     4.2951   5.6960   5.8705   6.0525   6.6765   8.9684   9.8165  10.2389
    12.4873  12.6606  13.7540  16.8038  18.4677  19.1268  20.5688  21.2273
    21.3622  21.7900  22.3221  22.4323  23.2736  23.5046  24.2059  25.0580
    25.4006  27.2531  27.5148  28.1234  28.4117  28.4343  28.5532  28.6905
    28.8476  29.0293  29.2815  29.8576  30.0047  30.1640  30.4216  30.8465
    32.0919  32.1943  32.2295  32.2473  32.7386  32.9776  34.8633  35.1180
    35.2660  35.8183  36.4136  36.8896

     occupation numbers 
     1.0000   1.0000   1.0000   1.0000   0.0000   0.0000   0.0000   0.0000
     0.0000   0.0000   0.0000   0.0000   0.0000   0.0000   0.0000   0.0000
     0.0000   0.0000   0.0000   0.0000   0.0000   0.0000   0.0000   0.0000
     0.0000   0.0000   0.0000   0.0000   0.0000   0.0000   0.0000   0.0000
     0.0000   0.0000   0.0000   0.0000   0.0000   0.0000   0.0000   0.0000
     0.0000   0.0000   0.0000   0.0000   0.0000   0.0000   0.0000   0.0000
     0.0000   0.0000   0.0000   0.0000   0.0000   0.0000   0.0000   0.0000
     0.0000   0.0000   0.0000   0.0000

          k = 0.0000 1.0264 0.0000 (  2728 PWs)   bands (ev):

   -21.6192  -9.6437  -6.4972  -5.9551   1.0414   1.5494   1.6453   2.7192
     3.0874   4.8164   5.4390   6.1242   7.2428   7.7903   8.2046   8.6199
    10.8853  11.5488  12.5651  16.0097  17.3110  20.9430  21.1190  22.8412
    23.3599  24.0451  26.6712  26.8041  27.4091  27.5270  28.7993  28.8143
    28.9485  29.1222  29.9461  30.6029  30.9891  31.0058  31.0618  31.0814
    31.2147  31.2630  31.8991  32.3048  32.4040  32.6364  32.7146  33.7393
    33.9372  34.1898  34.5338  34.7992  35.0160  35.0790  36.0924  36.5508
    37.0842  37.2428  37.4766  37.5652

     occupation numbers 
     1.0000   1.0000   1.0000   1.0000   0.0000   0.0000   0.0000   0.0000
     0.0000   0.0000   0.0000   0.0000   0.0000   0.0000   0.0000   0.0000
     0.0000   0.0000   0.0000   0.0000   0.0000   0.0000   0.0000   0.0000
     0.0000   0.0000   0.0000   0.0000   0.0000   0.0000   0.0000   0.0000
     0.0000   0.0000   0.0000   0.0000   0.0000   0.0000   0.0000   0.0000
     0.0000   0.0000   0.0000   0.0000   0.0000   0.0000   0.0000   0.0000
     0.0000   0.0000   0.0000   0.0000   0.0000   0.0000   0.0000   0.0000
     0.0000   0.0000   0.0000   0.0000

          k = 0.1111 0.0642 0.0000 (  2728 PWs)   bands (ev):

   -21.6192  -9.6437  -6.4972  -5.9551   1.0414   1.5494   1.6453   2.7192
     3.0874   4.8164   5.4390   6.1242   7.2428   7.7903   8.2046   8.6199
    10.8853  11.5488  12.5651  16.0097  17.3110  20.9430  21.1190  22.8412
    23.3599  24.0451  26.6712  26.8041  27.4091  27.5270  28.7993  28.8143
    28.9485  29.1222  29.9461  30.6029  30.9891  31.0058  31.0618  31.0814
    31.2147  31.2630  31.8991  32.3048  32.4040  32.6364  32.7146  33.7393
    33.9372  34.1898  34.5338  34.7992  35.0160  35.0790  36.0924  36.5508
    37.0842  37.2428  37.4766  37.5652

     occupation numbers 
     1.0000   1.0000   1.0000   1.0000   0.0000   0.0000   0.0000   0.0000
     0.0000   0.0000   0.0000   0.0000   0.0000   0.0000   0.0000   0.0000
     0.0000   0.0000   0.0000   0.0000   0.0000   0.0000   0.0000   0.0000
     0.0000   0.0000   0.0000   0.0000   0.0000   0.0000   0.0000   0.0000
     0.0000   0.0000   0.0000   0.0000   0.0000   0.0000   0.0000   0.0000
     0.0000   0.0000   0.0000   0.0000   0.0000   0.0000   0.0000   0.0000
     0.0000   0.0000   0.0000   0.0000   0.0000   0.0000   0.0000   0.0000
     0.0000   0.0000   0.0000   0.0000

          k = 0.1111 0.1925 0.0000 (  2735 PWs)   bands (ev):

   -21.0372  -8.9525  -8.0565  -7.1056   1.8450   2.3609   2.4579   3.5243
     3.8941   5.6130   6.2225   6.5273   6.7564   8.3134   8.5713   9.4227
    12.2854  12.3586  13.3578  16.5384  18.0865  19.2795  21.9741  22.3975
    23.0664  23.6295  23.8767  24.2881  24.5388  24.6339  24.8027  24.8637
    25.9414  25.9646  26.2529  26.2714  27.3877  28.0833  28.2609  28.3554
    28.5082  29.8314  29.9036  31.1247  31.3586  31.5276  31.5757  34.0480
    34.5343  34.5843  34.7293  35.3070  35.4123  35.5239  35.5696  35.5712
    35.8204  36.0676  36.1336  36.7411

     occupation numbers 
     1.0000   1.0000   1.0000   1.0000   0.0000   0.0000   0.0000   0.0000
     0.0000   0.0000   0.0000   0.0000   0.0000   0.0000   0.0000   0.0000
     0.0000   0.0000   0.0000   0.0000   0.0000   0.0000   0.0000   0.0000
     0.0000   0.0000   0.0000   0.0000   0.0000   0.0000   0.0000   0.0000
     0.0000   0.0000   0.0000   0.0000   0.0000   0.0000   0.0000   0.0000
     0.0000   0.0000   0.0000   0.0000   0.0000   0.0000   0.0000   0.0000
     0.0000   0.0000   0.0000   0.0000   0.0000   0.0000   0.0000   0.0000
     0.0000   0.0000   0.0000   0.0000

          k = 0.1111 0.3208 0.0000 (  2702 PWs)   bands (ev):

   -19.8862 -10.5130  -8.4944  -7.6108   3.4487   3.8439   4.0217   4.0827
     5.1344   5.5044   6.8455   7.1940   7.8732  10.0866  10.4366  11.0175
    13.4926  14.8935  14.9376  15.7438  18.3851  18.5419  18.8931  19.0347
    19.5827  19.9659  20.3110  21.4861  21.7174  22.3926  22.5321  22.6129
    23.1371  23.7127  24.0168  24.2346  24.4568  25.4792  26.0846  26.0874
    26.2994  26.8702  28.5789  29.1537  29.3959  29.9510  30.4128  31.5591
    31.5770  32.5375  33.3473  33.5343  33.6573  33.7008  34.2202  34.5292
    34.8276  34.9148  36.4549  36.9485

     occupation numbers 
     1.0000   1.0000   1.0000   1.0000   0.0000   0.0000   0.0000   0.0000
     0.0000   0.0000   0.0000   0.0000   0.0000   0.0000   0.0000   0.0000
     0.0000   0.0000   0.0000   0.0000   0.0000   0.0000   0.0000   0.0000
     0.0000   0.0000   0.0000   0.0000   0.0000   0.0000   0.0000   0.0000
     0.0000   0.0000   0.0000   0.0000   0.0000   0.0000   0.0000   0.0000
     0.0000   0.0000   0.0000   0.0000   0.0000   0.0000   0.0000   0.0000
     0.0000   0.0000   0.0000   0.0000   0.0000   0.0000   0.0000   0.0000
     0.0000   0.0000   0.0000   0.0000

          k = 0.1111 0.4491 0.0000 (  2678 PWs)   bands (ev):

   -18.2041 -13.2820  -9.3775  -5.7746   1.0141   5.8311   6.3994   6.4680
     6.5689   7.5107   7.9298   9.4857  10.2462  11.8730  12.1104  13.2350
    13.3459  13.7261  14.1571  14.4307  15.2731  15.5399  16.6133  17.1705
    17.3615  17.5651  18.9897  19.8778  20.5309  20.7044  21.0690  21.3130
    21.4339  21.7229  22.3629  22.6461  23.1009  24.1259  24.7309  25.0089
    25.0106  25.6335  26.8047  27.7212  27.9375  28.3980  29.1861  29.8998
    31.2020  31.3157  32.0849  32.3311  32.3560  32.4041  33.3829  33.5756
    34.2058  34.4023  35.1325  35.6178

     occupation numbers 
     1.0000   1.0000   1.0000   1.0000   0.0000   0.0000   0.0000   0.0000
     0.0000   0.0000   0.0000   0.0000   0.0000   0.0000   0.0000   0.0000
     0.0000   0.0000   0.0000   0.0000   0.0000   0.0000   0.0000   0.0000
     0.0000   0.0000   0.0000   0.0000   0.0000   0.0000   0.0000   0.0000
     0.0000   0.0000   0.0000   0.0000   0.0000   0.0000   0.0000   0.0000
     0.0000   0.0000   0.0000   0.0000   0.0000   0.0000   0.0000   0.0000
     0.0000   0.0000   0.0000   0.0000   0.0000   0.0000   0.0000   0.0000
     0.0000   0.0000   0.0000   0.0000

          k = 0.1111 0.5774 0.0000 (  2658 PWs)   bands (ev):

   -16.4519 -15.4361  -9.6781  -4.4308  -0.7205   6.3563   8.9067   9.0327
     9.3519   9.6650   9.7599   9.7608  10.3696  10.7989  11.0892  11.1293
    11.9802  12.8687  13.2935  13.3780  14.0983  15.8167  15.8291  16.3190
    16.7857  17.3990  19.5697  19.6497  19.6755  19.9129  20.1924  20.8376
    20.9686  21.6926  21.9811  22.1889  22.8367  22.9351  24.0734  24.5696
    24.5699  25.6998  25.9913  26.4363  27.3924  27.7072  29.3190  30.3492
    30.7194  31.0700  31.3121  31.6206  31.7573  31.9533  31.9977  33.1342
    33.1594  34.8025  34.9026  35.1803

     occupation numbers 
     1.0000   1.0000   1.0000   1.0000   0.0000   0.0000   0.0000   0.0000
     0.0000   0.0000   0.0000   0.0000   0.0000   0.0000   0.0000   0.0000
     0.0000   0.0000   0.0000   0.0000   0.0000   0.0000   0.0000   0.0000
     0.0000   0.0000   0.0000   0.0000   0.0000   0.0000   0.0000   0.0000
     0.0000   0.0000   0.0000   0.0000   0.0000   0.0000   0.0000   0.0000
     0.0000   0.0000   0.0000   0.0000   0.0000   0.0000   0.0000   0.0000
     0.0000   0.0000   0.0000   0.0000   0.0000   0.0000   0.0000   0.0000
     0.0000   0.0000   0.0000   0.0000

          k = 0.1111 0.7057 0.0000 (  2678 PWs)   bands (ev):

   -18.2041 -13.2820  -9.3775  -5.7746   1.0141   5.8311   6.3994   6.4680
     6.5689   7.5107   7.9298   9.4857  10.2462  11.8730  12.1104  13.2350
    13.3459  13.7261  14.1571  14.4307  15.2731  15.5399  16.6133  17.1705
    17.3615  17.5651  18.9897  19.8778  20.5309  20.7044  21.0690  21.3130
    21.4339  21.7229  22.3629  22.6461  23.1009  24.1259  24.7309  25.0089
    25.0106  25.6335  26.8047  27.7212  27.9375  28.3980  29.1861  29.8998
    31.2020  31.3157  32.0849  32.3311  32.3560  32.4041  33.3829  33.5756
    34.2058  34.4023  35.1325  35.6178

     occupation numbers 
     1.0000   1.0000   1.0000   1.0000   0.0000   0.0000   0.0000   0.0000
     0.0000   0.0000   0.0000   0.0000   0.0000   0.0000   0.0000   0.0000
     0.0000   0.0000   0.0000   0.0000   0.0000   0.0000   0.0000   0.0000
     0.0000   0.0000   0.0000   0.0000   0.0000   0.0000   0.0000   0.0000
     0.0000   0.0000   0.0000   0.0000   0.0000   0.0000   0.0000   0.0000
     0.0000   0.0000   0.0000   0.0000   0.0000   0.0000   0.0000   0.0000
     0.0000   0.0000   0.0000   0.0000   0.0000   0.0000   0.0000   0.0000
     0.0000   0.0000   0.0000   0.0000

          k = 0.1111 0.8340 0.0000 (  2702 PWs)   bands (ev):

   -19.8862 -10.5130  -8.4944  -7.6108   3.4487   3.8439   4.0217   4.0827
     5.1344   5.5044   6.8455   7.1940   7.8732  10.0866  10.4366  11.0175
    13.4926  14.8935  14.9376  15.7438  18.3851  18.5419  18.8931  19.0347
    19.5827  19.9659  20.3110  21.4861  21.7174  22.3926  22.5321  22.6129
    23.1371  23.7127  24.0168  24.2346  24.4568  25.4792  26.0846  26.0874
    26.2994  26.8702  28.5789  29.1537  29.3959  29.9510  30.4128  31.5591
    31.5770  32.5375  33.3473  33.5343  33.6573  33.7008  34.2202  34.5292
    34.8276  34.9148  36.4549  36.9485

     occupation numbers 
     1.0000   1.0000   1.0000   1.0000   0.0000   0.0000   0.0000   0.0000
     0.0000   0.0000   0.0000   0.0000   0.0000   0.0000   0.0000   0.0000
     0.0000   0.0000   0.0000   0.0000   0.0000   0.0000   0.0000   0.0000
     0.0000   0.0000   0.0000   0.0000   0.0000   0.0000   0.0000   0.0000
     0.0000   0.0000   0.0000   0.0000   0.0000   0.0000   0.0000   0.0000
     0.0000   0.0000   0.0000   0.0000   0.0000   0.0000   0.0000   0.0000
     0.0000   0.0000   0.0000   0.0000   0.0000   0.0000   0.0000   0.0000
     0.0000   0.0000   0.0000   0.0000

          k = 0.1111 0.9623 0.0000 (  2735 PWs)   bands (ev):

   -21.0372  -8.9525  -8.0565  -7.1056   1.8450   2.3609   2.4579   3.5243
     3.8941   5.6130   6.2225   6.5273   6.7564   8.3134   8.5713   9.4227
    12.2854  12.3586  13.3578  16.5384  18.0865  19.2795  21.9741  22.3975
    23.0664  23.6295  23.8767  24.2881  24.5388  24.6339  24.8027  24.8637
    25.9414  25.9646  26.2529  26.2714  27.3877  28.0833  28.2609  28.3554
    28.5082  29.8314  29.9036  31.1247  31.3586  31.5276  31.5757  34.0480
    34.5343  34.5843  34.7293  35.3070  35.4123  35.5239  35.5696  35.5712
    35.8204  36.0676  36.1336  36.7411

     occupation numbers 
     1.0000   1.0000   1.0000   1.0000   0.0000   0.0000   0.0000   0.0000
     0.0000   0.0000   0.0000   0.0000   0.0000   0.0000   0.0000   0.0000
     0.0000   0.0000   0.0000   0.0000   0.0000   0.0000   0.0000   0.0000
     0.0000   0.0000   0.0000   0.0000   0.0000   0.0000   0.0000   0.0000
     0.0000   0.0000   0.0000   0.0000   0.0000   0.0000   0.0000   0.0000
     0.0000   0.0000   0.0000   0.0000   0.0000   0.0000   0.0000   0.0000
     0.0000   0.0000   0.0000   0.0000   0.0000   0.0000   0.0000   0.0000
     0.0000   0.0000   0.0000   0.0000

          k = 0.1111 1.0906 0.0000 (  2728 PWs)   bands (ev):

   -21.6192  -9.6437  -6.4972  -5.9551   1.0414   1.5494   1.6453   2.7192
     3.0874   4.8164   5.4390   6.1242   7.2428   7.7903   8.2046   8.6199
    10.8853  11.5488  12.5651  16.0097  17.3110  20.9430  21.1190  22.8412
    23.3599  24.0451  26.6712  26.8041  27.4091  27.5270  28.7993  28.8143
    28.9485  29.1222  29.9461  30.6029  30.9891  31.0058  31.0618  31.0814
    31.2147  31.2630  31.8991  32.3048  32.4040  32.6364  32.7146  33.7393
    33.9372  34.1898  34.5338  34.7992  35.0160  35.0790  36.0924  36.5508
    37.0842  37.2428  37.4766  37.5652

     occupation numbers 
     1.0000   1.0000   1.0000   1.0000   0.0000   0.0000   0.0000   0.0000
     0.0000   0.0000   0.0000   0.0000   0.0000   0.0000   0.0000   0.0000
     0.0000   0.0000   0.0000   0.0000   0.0000   0.0000   0.0000   0.0000
     0.0000   0.0000   0.0000   0.0000   0.0000   0.0000   0.0000   0.0000
     0.0000   0.0000   0.0000   0.0000   0.0000   0.0000   0.0000   0.0000
     0.0000   0.0000   0.0000   0.0000   0.0000   0.0000   0.0000   0.0000
     0.0000   0.0000   0.0000   0.0000   0.0000   0.0000   0.0000   0.0000
     0.0000   0.0000   0.0000   0.0000

          k = 0.2222 0.1283 0.0000 (  2718 PWs)   bands (ev):

   -20.7475  -9.0532  -8.6124  -7.1152   2.2459   2.7651   2.8638   3.9224
     4.2951   5.6960   5.8705   6.0525   6.6765   8.9684   9.8165  10.2389
    12.4873  12.6606  13.7540  16.8038  18.4677  19.1268  20.5688  21.2273
    21.3622  21.7900  22.3221  22.4323  23.2736  23.5046  24.2059  25.0580
    25.4006  27.2531  27.5148  28.1234  28.4117  28.4343  28.5532  28.6905
    28.8476  29.0293  29.2815  29.8576  30.0047  30.1640  30.4216  30.8465
    32.0919  32.1943  32.2295  32.2473  32.7386  32.9776  34.8633  35.1180
    35.2660  35.8183  36.4136  36.8896

     occupation numbers 
     1.0000   1.0000   1.0000   1.0000   0.0000   0.0000   0.0000   0.0000
     0.0000   0.0000   0.0000   0.0000   0.0000   0.0000   0.0000   0.0000
     0.0000   0.0000   0.0000   0.0000   0.0000   0.0000   0.0000   0.0000
     0.0000   0.0000   0.0000   0.0000   0.0000   0.0000   0.0000   0.0000
     0.0000   0.0000   0.0000   0.0000   0.0000   0.0000   0.0000   0.0000
     0.0000   0.0000   0.0000   0.0000   0.0000   0.0000   0.0000   0.0000
     0.0000   0.0000   0.0000   0.0000   0.0000   0.0000   0.0000   0.0000
     0.0000   0.0000   0.0000   0.0000

          k = 0.2222 0.2566 0.0000 (  2702 PWs)   bands (ev):

   -19.8862 -10.5130  -8.4944  -7.6108   3.4487   3.8439   4.0217   4.0827
     5.1344   5.5044   6.8455   7.1940   7.8732  10.0866  10.4366  11.0175
    13.4926  14.8935  14.9376  15.7438  18.3851  18.5419  18.8931  19.0347
    19.5827  19.9659  20.3110  21.4861  21.7174  22.3926  22.5321  22.6129
    23.1371  23.7127  24.0168  24.2346  24.4568  25.4792  26.0846  26.0874
    26.2994  26.8702  28.5789  29.1537  29.3959  29.9510  30.4128  31.5591
    31.5770  32.5375  33.3473  33.5343  33.6573  33.7008  34.2202  34.5292
    34.8276  34.9148  36.4549  36.9485

     occupation numbers 
     1.0000   1.0000   1.0000   1.0000   0.0000   0.0000   0.0000   0.0000
     0.0000   0.0000   0.0000   0.0000   0.0000   0.0000   0.0000   0.0000
     0.0000   0.0000   0.0000   0.0000   0.0000   0.0000   0.0000   0.0000
     0.0000   0.0000   0.0000   0.0000   0.0000   0.0000   0.0000   0.0000
     0.0000   0.0000   0.0000   0.0000   0.0000   0.0000   0.0000   0.0000
     0.0000   0.0000   0.0000   0.0000   0.0000   0.0000   0.0000   0.0000
     0.0000   0.0000   0.0000   0.0000   0.0000   0.0000   0.0000   0.0000
     0.0000   0.0000   0.0000   0.0000

          k = 0.2222 0.3849 0.0000 (  2681 PWs)   bands (ev):

   -18.4806 -12.0305 -10.5174  -6.0217   1.6476   5.4425   5.9750   6.1125
     7.0757   7.5159   9.0185   9.1468   9.8816  10.0597  11.2846  12.9653
    13.0958  16.1933  16.2757  16.6138  16.8337  16.9281  17.1023  17.2152
    17.3089  18.0207  18.2155  18.6247  18.6288  19.4430  20.0060  20.3333
    20.7307  21.2741  21.2930  21.3361  22.7675  23.4749  23.9777  24.2463
    24.8956  25.8775  26.0567  27.5806  28.0670  28.1064  28.5573  29.3773
    30.8669  32.3878  32.6802  32.7978  32.8904  33.8318  34.0196  37.2071
    37.3868  37.6788  37.7206  38.5592

     occupation numbers 
     1.0000   1.0000   1.0000   1.0000   0.0000   0.0000   0.0000   0.0000
     0.0000   0.0000   0.0000   0.0000   0.0000   0.0000   0.0000   0.0000
     0.0000   0.0000   0.0000   0.0000   0.0000   0.0000   0.0000   0.0000
     0.0000   0.0000   0.0000   0.0000   0.0000   0.0000   0.0000   0.0000
     0.0000   0.0000   0.0000   0.0000   0.0000   0.0000   0.0000   0.0000
     0.0000   0.0000   0.0000   0.0000   0.0000   0.0000   0.0000   0.0000
     0.0000   0.0000   0.0000   0.0000   0.0000   0.0000   0.0000   0.0000
     0.0000   0.0000   0.0000   0.0000

          k = 0.2222 0.5132 0.0000 (  2666 PWs)   bands (ev):

   -16.6233 -14.1531 -11.5187  -4.1361  -0.6035   8.1738   8.4063   8.9404
     9.2388   9.3597  10.3053  10.5513  11.0890  12.2572  12.5047  12.5776
    12.8032  13.4208  13.8971  14.6529  15.2173  15.5237  15.8554  15.8701
    16.3980  16.4779  16.7067  17.5071  17.8055  18.6399  18.6693  19.0101
    19.6843  20.1096  20.1569  21.3094  21.6720  22.1275  22.8239  23.3896
    23.9171  24.0066  25.1656  25.9280  27.2750  27.4370  28.4808  28.5002
    30.1461  30.3952  31.7657  31.9318  32.9103  33.8957  35.1759  36.0507
    36.4754  36.7551  37.7952  38.0486

     occupation numbers 
     1.0000   1.0000   1.0000   1.0000   0.0000   0.0000   0.0000   0.0000
     0.0000   0.0000   0.0000   0.0000   0.0000   0.0000   0.0000   0.0000
     0.0000   0.0000   0.0000   0.0000   0.0000   0.0000   0.0000   0.0000
     0.0000   0.0000   0.0000   0.0000   0.0000   0.0000   0.0000   0.0000
     0.0000   0.0000   0.0000   0.0000   0.0000   0.0000   0.0000   0.0000
     0.0000   0.0000   0.0000   0.0000   0.0000   0.0000   0.0000   0.0000
     0.0000   0.0000   0.0000   0.0000   0.0000   0.0000   0.0000   0.0000
     0.0000   0.0000   0.0000   0.0000

          k = 0.2222 0.6415 0.0000 (  2666 PWs)   bands (ev):

   -16.6233 -14.1531 -11.5187  -4.1361  -0.6035   8.1738   8.4063   8.9404
     9.2388   9.3597  10.3053  10.5513  11.0890  12.2572  12.5047  12.5776
    12.8032  13.4208  13.8971  14.6529  15.2173  15.5238  15.8554  15.8701
    16.3980  16.4779  16.7067  17.5071  17.8055  18.6399  18.6693  19.0101
    19.6843  20.1096  20.1569  21.3094  21.6720  22.1275  22.8239  23.3896
    23.9171  24.0066  25.1656  25.9280  27.2750  27.4370  28.4808  28.5002
    30.1461  30.3952  31.7657  31.9318  32.9103  33.8957  35.1759  36.0507
    36.4754  36.7551  37.7952  38.0486

     occupation numbers 
     1.0000   1.0000   1.0000   1.0000   0.0000   0.0000   0.0000   0.0000
     0.0000   0.0000   0.0000   0.0000   0.0000   0.0000   0.0000   0.0000
     0.0000   0.0000   0.0000   0.0000   0.0000   0.0000   0.0000   0.0000
     0.0000   0.0000   0.0000   0.0000   0.0000   0.0000   0.0000   0.0000
     0.0000   0.0000   0.0000   0.0000   0.0000   0.0000   0.0000   0.0000
     0.0000   0.0000   0.0000   0.0000   0.0000   0.0000   0.0000   0.0000
     0.0000   0.0000   0.0000   0.0000   0.0000   0.0000   0.0000   0.0000
     0.0000   0.0000   0.0000   0.0000

          k = 0.2222 0.7698 0.0000 (  2681 PWs)   bands (ev):

   -18.4806 -12.0305 -10.5174  -6.0217   1.6476   5.4425   5.9750   6.1125
     7.0757   7.5159   9.0185   9.1468   9.8816  10.0597  11.2846  12.9653
    13.0958  16.1933  16.2757  16.6138  16.8337  16.9281  17.1023  17.2152
    17.3089  18.0207  18.2155  18.6247  18.6288  19.4430  20.0060  20.3333
    20.7307  21.2741  21.2930  21.3361  22.7675  23.4749  23.9777  24.2463
    24.8956  25.8775  26.0567  27.5806  28.0670  28.1064  28.5573  29.3773
    30.8669  32.3878  32.6802  32.7978  32.8904  33.8318  34.0196  37.2071
    37.3868  37.6788  37.7206  38.5592

     occupation numbers 
     1.0000   1.0000   1.0000   1.0000   0.0000   0.0000   0.0000   0.0000
     0.0000   0.0000   0.0000   0.0000   0.0000   0.0000   0.0000   0.0000
     0.0000   0.0000   0.0000   0.0000   0.0000   0.0000   0.0000   0.0000
     0.0000   0.0000   0.0000   0.0000   0.0000   0.0000   0.0000   0.0000
     0.0000   0.0000   0.0000   0.0000   0.0000   0.0000   0.0000   0.0000
     0.0000   0.0000   0.0000   0.0000   0.0000   0.0000   0.0000   0.0000
     0.0000   0.0000   0.0000   0.0000   0.0000   0.0000   0.0000   0.0000
     0.0000   0.0000   0.0000   0.0000

          k = 0.2222 0.8981 0.0000 (  2702 PWs)   bands (ev):

   -19.8862 -10.5130  -8.4944  -7.6108   3.4487   3.8439   4.0217   4.0827
     5.1344   5.5044   6.8455   7.1940   7.8732  10.0866  10.4366  11.0175
    13.4926  14.8935  14.9376  15.7438  18.3851  18.5419  18.8931  19.0347
    19.5827  19.9659  20.3110  21.4861  21.7174  22.3926  22.5321  22.6129
    23.1371  23.7127  24.0168  24.2346  24.4568  25.4792  26.0846  26.0874
    26.2994  26.8702  28.5789  29.1537  29.3959  29.9510  30.4128  31.5591
    31.5770  32.5375  33.3473  33.5343  33.6573  33.7008  34.2202  34.5292
    34.8276  34.9148  36.4549  36.9485

     occupation numbers 
     1.0000   1.0000   1.0000   1.0000   0.0000   0.0000   0.0000   0.0000
     0.0000   0.0000   0.0000   0.0000   0.0000   0.0000   0.0000   0.0000
     0.0000   0.0000   0.0000   0.0000   0.0000   0.0000   0.0000   0.0000
     0.0000   0.0000   0.0000   0.0000   0.0000   0.0000   0.0000   0.0000
     0.0000   0.0000   0.0000   0.0000   0.0000   0.0000   0.0000   0.0000
     0.0000   0.0000   0.0000   0.0000   0.0000   0.0000   0.0000   0.0000
     0.0000   0.0000   0.0000   0.0000   0.0000   0.0000   0.0000   0.0000
     0.0000   0.0000   0.0000   0.0000

          k = 0.2222 1.0264 0.0000 (  2718 PWs)   bands (ev):

   -20.7475  -9.0532  -8.6124  -7.1152   2.2459   2.7651   2.8638   3.9224
     4.2951   5.6960   5.8705   6.0525   6.6765   8.9684   9.8165  10.2389
    12.4873  12.6606  13.7540  16.8038  18.4677  19.1268  20.5688  21.2273
    21.3622  21.7900  22.3221  22.4323  23.2736  23.5046  24.2059  25.0580
    25.4006  27.2531  27.5148  28.1234  28.4117  28.4343  28.5532  28.6905
    28.8476  29.0293  29.2815  29.8576  30.0047  30.1640  30.4216  30.8465
    32.0919  32.1943  32.2295  32.2473  32.7386  32.9776  34.8633  35.1180
    35.2660  35.8183  36.4136  36.8896

     occupation numbers 
     1.0000   1.0000   1.0000   1.0000   0.0000   0.0000   0.0000   0.0000
     0.0000   0.0000   0.0000   0.0000   0.0000   0.0000   0.0000   0.0000
     0.0000   0.0000   0.0000   0.0000   0.0000   0.0000   0.0000   0.0000
     0.0000   0.0000   0.0000   0.0000   0.0000   0.0000   0.0000   0.0000
     0.0000   0.0000   0.0000   0.0000   0.0000   0.0000   0.0000   0.0000
     0.0000   0.0000   0.0000   0.0000   0.0000   0.0000   0.0000   0.0000
     0.0000   0.0000   0.0000   0.0000   0.0000   0.0000   0.0000   0.0000
     0.0000   0.0000   0.0000   0.0000

          k = 0.2222 1.1547 0.0000 (  2735 PWs)   bands (ev):

   -21.0372  -8.9525  -8.0565  -7.1056   1.8450   2.3609   2.4579   3.5243
     3.8941   5.6130   6.2225   6.5273   6.7564   8.3134   8.5713   9.4227
    12.2854  12.3586  13.3578  16.5384  18.0865  19.2795  21.9741  22.3975
    23.0664  23.6295  23.8767  24.2881  24.5388  24.6339  24.8027  24.8637
    25.9414  25.9646  26.2529  26.2714  27.3877  28.0833  28.2609  28.3554
    28.5082  29.8314  29.9036  31.1247  31.3586  31.5276  31.5757  34.0480
    34.5343  34.5843  34.7293  35.3070  35.4123  35.5239  35.5696  35.5712
    35.8204  36.0676  36.1336  36.7411

     occupation numbers 
     1.0000   1.0000   1.0000   1.0000   0.0000   0.0000   0.0000   0.0000
     0.0000   0.0000   0.0000   0.0000   0.0000   0.0000   0.0000   0.0000
     0.0000   0.0000   0.0000   0.0000   0.0000   0.0000   0.0000   0.0000
     0.0000   0.0000   0.0000   0.0000   0.0000   0.0000   0.0000   0.0000
     0.0000   0.0000   0.0000   0.0000   0.0000   0.0000   0.0000   0.0000
     0.0000   0.0000   0.0000   0.0000   0.0000   0.0000   0.0000   0.0000
     0.0000   0.0000   0.0000   0.0000   0.0000   0.0000   0.0000   0.0000
     0.0000   0.0000   0.0000   0.0000

          k = 0.3333 0.1925 0.0000 (  2704 PWs)   bands (ev):

   -19.3176 -11.9924  -8.1400  -6.9799   2.6122   4.2428   4.8054   4.8897
     5.4478   5.9490   6.3285   8.0029   8.6615  10.8789  11.7902  13.5170
    13.9952  14.1503  15.4173  15.6727  15.7565  16.3798  16.4689  17.7120
    17.8454  19.0989  19.9646  20.2208  20.3718  20.4967  22.6803  22.8814
    24.6676  24.9173  25.8569  26.2089  26.2122  26.6736  26.9143  27.0184
    27.0582  27.1033  27.7347  28.0419  28.2113  28.3807  28.7206  29.6984
    30.3524  30.4318  30.6220  30.9412  31.8322  31.8437  32.5687  32.9714
    33.4136  33.7471  34.2216  35.2963

     occupation numbers 
     1.0000   1.0000   1.0000   1.0000   0.0000   0.0000   0.0000   0.0000
     0.0000   0.0000   0.0000   0.0000   0.0000   0.0000   0.0000   0.0000
     0.0000   0.0000   0.0000   0.0000   0.0000   0.0000   0.0000   0.0000
     0.0000   0.0000   0.0000   0.0000   0.0000   0.0000   0.0000   0.0000
     0.0000   0.0000   0.0000   0.0000   0.0000   0.0000   0.0000   0.0000
     0.0000   0.0000   0.0000   0.0000   0.0000   0.0000   0.0000   0.0000
     0.0000   0.0000   0.0000   0.0000   0.0000   0.0000   0.0000   0.0000
     0.0000   0.0000   0.0000   0.0000

          k = 0.3333 0.3208 0.0000 (  2678 PWs)   bands (ev):

   -18.2041 -13.2820  -9.3775  -5.7746   1.0141   5.8311   6.3994   6.4680
     6.5689   7.5107   7.9298   9.4857  10.2462  11.8730  12.1104  13.2350
    13.3459  13.7261  14.1571  14.4307  15.2731  15.5399  16.6133  17.1705
    17.3615  17.5651  18.9897  19.8778  20.5309  20.7044  21.0690  21.3130
    21.4339  21.7229  22.3629  22.6461  23.1009  24.1259  24.7309  25.0089
    25.0106  25.6335  26.8047  27.7212  27.9375  28.3980  29.1861  29.8998
    31.2020  31.3157  32.0849  32.3311  32.3560  32.4041  33.3829  33.5756
    34.2058  34.4023  35.1325  35.6178

     occupation numbers 
     1.0000   1.0000   1.0000   1.0000   0.0000   0.0000   0.0000   0.0000
     0.0000   0.0000   0.0000   0.0000   0.0000   0.0000   0.0000   0.0000
     0.0000   0.0000   0.0000   0.0000   0.0000   0.0000   0.0000   0.0000
     0.0000   0.0000   0.0000   0.0000   0.0000   0.0000   0.0000   0.0000
     0.0000   0.0000   0.0000   0.0000   0.0000   0.0000   0.0000   0.0000
     0.0000   0.0000   0.0000   0.0000   0.0000   0.0000   0.0000   0.0000
     0.0000   0.0000   0.0000   0.0000   0.0000   0.0000   0.0000   0.0000
     0.0000   0.0000   0.0000   0.0000

          k = 0.3333 0.4491 0.0000 (  2666 PWs)   bands (ev):

   -16.6233 -14.1531 -11.5187  -4.1361  -0.6035   8.1738   8.4063   8.9404
     9.2388   9.3597  10.3053  10.5513  11.0890  12.2572  12.5047  12.5776
    12.8032  13.4208  13.8971  14.6529  15.2173  15.5237  15.8554  15.8701
    16.3980  16.4779  16.7067  17.5071  17.8055  18.6399  18.6693  19.0101
    19.6843  20.1096  20.1569  21.3094  21.6720  22.1275  22.8239  23.3896
    23.9171  24.0066  25.1656  25.9280  27.2750  27.4370  28.4808  28.5002
    30.1461  30.3952  31.7657  31.9318  32.9103  33.8957  35.1759  36.0507
    36.4754  36.7551  37.7952  38.0486

     occupation numbers 
     1.0000   1.0000   1.0000   1.0000   0.0000   0.0000   0.0000   0.0000
     0.0000   0.0000   0.0000   0.0000   0.0000   0.0000   0.0000   0.0000
     0.0000   0.0000   0.0000   0.0000   0.0000   0.0000   0.0000   0.0000
     0.0000   0.0000   0.0000   0.0000   0.0000   0.0000   0.0000   0.0000
     0.0000   0.0000   0.0000   0.0000   0.0000   0.0000   0.0000   0.0000
     0.0000   0.0000   0.0000   0.0000   0.0000   0.0000   0.0000   0.0000
     0.0000   0.0000   0.0000   0.0000   0.0000   0.0000   0.0000   0.0000
     0.0000   0.0000   0.0000   0.0000

          k = 0.3333 0.5774 0.0000 (  2652 PWs)   bands (ev):

   -14.9562 -14.9562 -12.9475  -2.3231  -2.3231   8.2797  10.5574  10.5574
    11.0829  12.1001  12.1001  12.1132  12.1132  12.1401  12.4100  12.9606
    12.9606  13.2235  13.2235  13.2979  13.8554  14.2516  14.2516  15.0956
    15.2779  15.2779  16.1913  16.3472  16.3472  17.2391  18.1979  18.1979
    19.3652  19.3652  19.3867  20.0450  21.8976  21.8976  22.5382  23.2092
    23.2092  23.3855  23.7519  26.2896  26.2896  27.8834  27.8834  28.1532
    28.3392  31.1904  31.1904  33.3203  33.3203  33.5982  33.7661  35.5623
    35.5623  38.5229  39.3942  39.3942

     occupation numbers 
     1.0000   1.0000   1.0000   0.5000   0.5000   0.0000   0.0000   0.0000
     0.0000   0.0000   0.0000   0.0000   0.0000   0.0000   0.0000   0.0000
     0.0000   0.0000   0.0000   0.0000   0.0000   0.0000   0.0000   0.0000
     0.0000   0.0000   0.0000   0.0000   0.0000   0.0000   0.0000   0.0000
     0.0000   0.0000   0.0000   0.0000   0.0000   0.0000   0.0000   0.0000
     0.0000   0.0000   0.0000   0.0000   0.0000   0.0000   0.0000   0.0000
     0.0000   0.0000   0.0000   0.0000   0.0000   0.0000   0.0000   0.0000
     0.0000   0.0000   0.0000   0.0000

          k = 0.3333 0.7057 0.0000 (  2666 PWs)   bands (ev):

   -16.6233 -14.1531 -11.5187  -4.1361  -0.6035   8.1738   8.4063   8.9404
     9.2388   9.3597  10.3053  10.5513  11.0890  12.2572  12.5047  12.5776
    12.8032  13.4208  13.8971  14.6529  15.2173  15.5237  15.8554  15.8701
    16.3980  16.4779  16.7067  17.5071  17.8055  18.6399  18.6693  19.0101
    19.6843  20.1096  20.1569  21.3094  21.6720  22.1275  22.8239  23.3896
    23.9171  24.0066  25.1656  25.9280  27.2750  27.4370  28.4808  28.5002
    30.1461  30.3952  31.7657  31.9318  32.9103  33.8957  35.1759  36.0507
    36.4754  36.7551  37.7952  38.0486

     occupation numbers 
     1.0000   1.0000   1.0000   1.0000   0.0000   0.0000   0.0000   0.0000
     0.0000   0.0000   0.0000   0.0000   0.0000   0.0000   0.0000   0.0000
     0.0000   0.0000   0.0000   0.0000   0.0000   0.0000   0.0000   0.0000
     0.0000   0.0000   0.0000   0.0000   0.0000   0.0000   0.0000   0.0000
     0.0000   0.0000   0.0000   0.0000   0.0000   0.0000   0.0000   0.0000
     0.0000   0.0000   0.0000   0.0000   0.0000   0.0000   0.0000   0.0000
     0.0000   0.0000   0.0000   0.0000   0.0000   0.0000   0.0000   0.0000
     0.0000   0.0000   0.0000   0.0000

          k = 0.3333 0.8340 0.0000 (  2678 PWs)   bands (ev):

   -18.2041 -13.2820  -9.3775  -5.7746   1.0141   5.8311   6.3994   6.4680
     6.5689   7.5107   7.9298   9.4857  10.2462  11.8730  12.1104  13.2350
    13.3459  13.7261  14.1571  14.4307  15.2731  15.5399  16.6133  17.1705
    17.3615  17.5651  18.9897  19.8778  20.5309  20.7044  21.0690  21.3130
    21.4339  21.7229  22.3629  22.6461  23.1009  24.1259  24.7309  25.0089
    25.0106  25.6335  26.8047  27.7212  27.9375  28.3980  29.1861  29.8998
    31.2020  31.3157  32.0849  32.3311  32.3560  32.4041  33.3829  33.5756
    34.2058  34.4023  35.1325  35.6178

     occupation numbers 
     1.0000   1.0000   1.0000   1.0000   0.0000   0.0000   0.0000   0.0000
     0.0000   0.0000   0.0000   0.0000   0.0000   0.0000   0.0000   0.0000
     0.0000   0.0000   0.0000   0.0000   0.0000   0.0000   0.0000   0.0000
     0.0000   0.0000   0.0000   0.0000   0.0000   0.0000   0.0000   0.0000
     0.0000   0.0000   0.0000   0.0000   0.0000   0.0000   0.0000   0.0000
     0.0000   0.0000   0.0000   0.0000   0.0000   0.0000   0.0000   0.0000
     0.0000   0.0000   0.0000   0.0000   0.0000   0.0000   0.0000   0.0000
     0.0000   0.0000   0.0000   0.0000

          k = 0.3333 0.9623 0.0000 (  2704 PWs)   bands (ev):

   -19.3176 -11.9924  -8.1400  -6.9799   2.6122   4.2428   4.8054   4.8897
     5.4478   5.9490   6.3285   8.0029   8.6615  10.8789  11.7902  13.5170
    13.9952  14.1503  15.4173  15.6727  15.7565  16.3798  16.4689  17.7120
    17.8454  19.0989  19.9646  20.2208  20.3718  20.4967  22.6803  22.8814
    24.6676  24.9173  25.8569  26.2089  26.2122  26.6736  26.9143  27.0184
    27.0582  27.1033  27.7347  28.0419  28.2113  28.3807  28.7206  29.6984
    30.3524  30.4318  30.6220  30.9412  31.8322  31.8437  32.5687  32.9714
    33.4136  33.7471  34.2216  35.2963

     occupation numbers 
     1.0000   1.0000   1.0000   1.0000   0.0000   0.0000   0.0000   0.0000
     0.0000   0.0000   0.0000   0.0000   0.0000   0.0000   0.0000   0.0000
     0.0000   0.0000   0.0000   0.0000   0.0000   0.0000   0.0000   0.0000
     0.0000   0.0000   0.0000   0.0000   0.0000   0.0000   0.0000   0.0000
     0.0000   0.0000   0.0000   0.0000   0.0000   0.0000   0.0000   0.0000
     0.0000   0.0000   0.0000   0.0000   0.0000   0.0000   0.0000   0.0000
     0.0000   0.0000   0.0000   0.0000   0.0000   0.0000   0.0000   0.0000
     0.0000   0.0000   0.0000   0.0000

          k = 0.3333 1.0906 0.0000 (  2702 PWs)   bands (ev):

   -19.8862 -10.5130  -8.4944  -7.6108   3.4487   3.8439   4.0217   4.0827
     5.1344   5.5044   6.8455   7.1940   7.8732  10.0866  10.4366  11.0175
    13.4926  14.8935  14.9376  15.7438  18.3851  18.5419  18.8931  19.0347
    19.5827  19.9659  20.3110  21.4861  21.7174  22.3926  22.5321  22.6129
    23.1371  23.7127  24.0168  24.2346  24.4568  25.4792  26.0846  26.0874
    26.2994  26.8702  28.5789  29.1537  29.3959  29.9510  30.4128  31.5591
    31.5770  32.5375  33.3473  33.5343  33.6573  33.7008  34.2202  34.5292
    34.8276  34.9148  36.4549  36.9485

     occupation numbers 
     1.0000   1.0000   1.0000   1.0000   0.0000   0.0000   0.0000   0.0000
     0.0000   0.0000   0.0000   0.0000   0.0000   0.0000   0.0000   0.0000
     0.0000   0.0000   0.0000   0.0000   0.0000   0.0000   0.0000   0.0000
     0.0000   0.0000   0.0000   0.0000   0.0000   0.0000   0.0000   0.0000
     0.0000   0.0000   0.0000   0.0000   0.0000   0.0000   0.0000   0.0000
     0.0000   0.0000   0.0000   0.0000   0.0000   0.0000   0.0000   0.0000
     0.0000   0.0000   0.0000   0.0000   0.0000   0.0000   0.0000   0.0000
     0.0000   0.0000   0.0000   0.0000

          k = 0.3333 1.2189 0.0000 (  2702 PWs)   bands (ev):

   -19.8862 -10.5130  -8.4944  -7.6108   3.4487   3.8439   4.0217   4.0827
     5.1344   5.5044   6.8455   7.1940   7.8732  10.0866  10.4366  11.0175
    13.4926  14.8935  14.9376  15.7438  18.3851  18.5419  18.8931  19.0347
    19.5827  19.9659  20.3110  21.4861  21.7174  22.3926  22.5321  22.6129
    23.1371  23.7127  24.0168  24.2346  24.4568  25.4792  26.0846  26.0874
    26.2994  26.8702  28.5789  29.1537  29.3959  29.9510  30.4128  31.5591
    31.5770  32.5375  33.3473  33.5343  33.6573  33.7008  34.2202  34.5292
    34.8276  34.9148  36.4549  36.9485

     occupation numbers 
     1.0000   1.0000   1.0000   1.0000   0.0000   0.0000   0.0000   0.0000
     0.0000   0.0000   0.0000   0.0000   0.0000   0.0000   0.0000   0.0000
     0.0000   0.0000   0.0000   0.0000   0.0000   0.0000   0.0000   0.0000
     0.0000   0.0000   0.0000   0.0000   0.0000   0.0000   0.0000   0.0000
     0.0000   0.0000   0.0000   0.0000   0.0000   0.0000   0.0000   0.0000
     0.0000   0.0000   0.0000   0.0000   0.0000   0.0000   0.0000   0.0000
     0.0000   0.0000   0.0000   0.0000   0.0000   0.0000   0.0000   0.0000
     0.0000   0.0000   0.0000   0.0000

          k = 0.4444 0.2566 0.0000 (  2670 PWs)   bands (ev):

   -17.4050 -14.7466  -8.7057  -5.1267  -0.1003   5.1525   7.0363   7.6214
     7.7380   8.7288   9.1297  10.5008  10.6731  11.2081  11.3772  11.4371
    12.2027  12.6880  13.3549  14.2350  14.4962  14.8548  16.0249  17.1537
    17.4557  17.4946  18.2350  19.1819  19.4274  19.8321  21.5668  22.0176
    23.1726  23.1776  24.9552  25.1791  25.7674  25.8016  26.0880  26.2411
    26.2481  26.3334  27.1017  27.3604  27.5658  27.5820  27.8095  28.2674
    29.3670  29.5163  29.5351  29.8099  30.1748  31.4031  32.3185  32.3763
    32.9261  32.9404  33.3201  34.2979

     occupation numbers 
     1.0000   1.0000   1.0000   1.0000   0.0000   0.0000   0.0000   0.0000
     0.0000   0.0000   0.0000   0.0000   0.0000   0.0000   0.0000   0.0000
     0.0000   0.0000   0.0000   0.0000   0.0000   0.0000   0.0000   0.0000
     0.0000   0.0000   0.0000   0.0000   0.0000   0.0000   0.0000   0.0000
     0.0000   0.0000   0.0000   0.0000   0.0000   0.0000   0.0000   0.0000
     0.0000   0.0000   0.0000   0.0000   0.0000   0.0000   0.0000   0.0000
     0.0000   0.0000   0.0000   0.0000   0.0000   0.0000   0.0000   0.0000
     0.0000   0.0000   0.0000   0.0000

          k = 0.4444 0.3849 0.0000 (  2658 PWs)   bands (ev):

   -16.4519 -15.4361  -9.6781  -4.4308  -0.7205   6.3563   8.9067   9.0327
     9.3519   9.6650   9.7599   9.7608  10.3696  10.7989  11.0892  11.1293
    11.9802  12.8687  13.2935  13.3780  14.0983  15.8167  15.8291  16.3190
    16.7857  17.3990  19.5697  19.6497  19.6755  19.9129  20.1924  20.8376
    20.9686  21.6926  21.9811  22.1889  22.8367  22.9351  24.0734  24.5696
    24.5699  25.6998  25.9913  26.4363  27.3924  27.7072  29.3190  30.3492
    30.7194  31.0700  31.3121  31.6206  31.7573  31.9533  31.9977  33.1342
    33.1594  34.8025  34.9026  35.1803

     occupation numbers 
     1.0000   1.0000   1.0000   1.0000   0.0000   0.0000   0.0000   0.0000
     0.0000   0.0000   0.0000   0.0000   0.0000   0.0000   0.0000   0.0000
     0.0000   0.0000   0.0000   0.0000   0.0000   0.0000   0.0000   0.0000
     0.0000   0.0000   0.0000   0.0000   0.0000   0.0000   0.0000   0.0000
     0.0000   0.0000   0.0000   0.0000   0.0000   0.0000   0.0000   0.0000
     0.0000   0.0000   0.0000   0.0000   0.0000   0.0000   0.0000   0.0000
     0.0000   0.0000   0.0000   0.0000   0.0000   0.0000   0.0000   0.0000
     0.0000   0.0000   0.0000   0.0000

          k = 0.4444 0.5132 0.0000 (  2666 PWs)   bands (ev):

   -16.6233 -14.1531 -11.5187  -4.1361  -0.6035   8.1738   8.4063   8.9404
     9.2388   9.3597  10.3053  10.5513  11.0890  12.2572  12.5047  12.5776
    12.8032  13.4208  13.8971  14.6529  15.2173  15.5238  15.8554  15.8701
    16.3980  16.4779  16.7067  17.5071  17.8055  18.6399  18.6693  19.0101
    19.6843  20.1096  20.1569  21.3094  21.6720  22.1275  22.8239  23.3896
    23.9171  24.0066  25.1656  25.9280  27.2750  27.4370  28.4808  28.5002
    30.1461  30.3952  31.7657  31.9318  32.9103  33.8957  35.1759  36.0507
    36.4754  36.7551  37.7952  38.0486

     occupation numbers 
     1.0000   1.0000   1.0000   1.0000   0.0000   0.0000   0.0000   0.0000
     0.0000   0.0000   0.0000   0.0000   0.0000   0.0000   0.0000   0.0000
     0.0000   0.0000   0.0000   0.0000   0.0000   0.0000   0.0000   0.0000
     0.0000   0.0000   0.0000   0.0000   0.0000   0.0000   0.0000   0.0000
     0.0000   0.0000   0.0000   0.0000   0.0000   0.0000   0.0000   0.0000
     0.0000   0.0000   0.0000   0.0000   0.0000   0.0000   0.0000   0.0000
     0.0000   0.0000   0.0000   0.0000   0.0000   0.0000   0.0000   0.0000
     0.0000   0.0000   0.0000   0.0000

          k = 0.4444 0.6415 0.0000 (  2666 PWs)   bands (ev):

   -16.6233 -14.1531 -11.5187  -4.1361  -0.6035   8.1738   8.4063   8.9404
     9.2388   9.3597  10.3053  10.5513  11.0890  12.2572  12.5047  12.5776
    12.8032  13.4208  13.8971  14.6529  15.2173  15.5237  15.8554  15.8701
    16.3980  16.4779  16.7067  17.5071  17.8055  18.6399  18.6693  19.0101
    19.6843  20.1096  20.1569  21.3094  21.6720  22.1275  22.8239  23.3896
    23.9171  24.0066  25.1656  25.9280  27.2750  27.4370  28.4808  28.5002
    30.1461  30.3952  31.7657  31.9318  32.9103  33.8957  35.1759  36.0507
    36.4754  36.7551  37.7952  38.0486

     occupation numbers 
     1.0000   1.0000   1.0000   1.0000   0.0000   0.0000   0.0000   0.0000
     0.0000   0.0000   0.0000   0.0000   0.0000   0.0000   0.0000   0.0000
     0.0000   0.0000   0.0000   0.0000   0.0000   0.0000   0.0000   0.0000
     0.0000   0.0000   0.0000   0.0000   0.0000   0.0000   0.0000   0.0000
     0.0000   0.0000   0.0000   0.0000   0.0000   0.0000   0.0000   0.0000
     0.0000   0.0000   0.0000   0.0000   0.0000   0.0000   0.0000   0.0000
     0.0000   0.0000   0.0000   0.0000   0.0000   0.0000   0.0000   0.0000
     0.0000   0.0000   0.0000   0.0000

          k = 0.4444 0.7698 0.0000 (  2658 PWs)   bands (ev):

   -16.4519 -15.4361  -9.6781  -4.4308  -0.7205   6.3563   8.9067   9.0327
     9.3519   9.6650   9.7599   9.7608  10.3696  10.7989  11.0892  11.1294
    11.9802  12.8687  13.2935  13.3780  14.0983  15.8167  15.8291  16.3190
    16.7857  17.3990  19.5697  19.6497  19.6755  19.9129  20.1924  20.8376
    20.9686  21.6926  21.9811  22.1889  22.8367  22.9351  24.0734  24.5696
    24.5699  25.6998  25.9913  26.4363  27.3924  27.7072  29.3190  30.3492
    30.7194  31.0700  31.3121  31.6206  31.7573  31.9533  31.9977  33.1342
    33.1594  34.8025  34.9026  35.1803

     occupation numbers 
     1.0000   1.0000   1.0000   1.0000   0.0000   0.0000   0.0000   0.0000
     0.0000   0.0000   0.0000   0.0000   0.0000   0.0000   0.0000   0.0000
     0.0000   0.0000   0.0000   0.0000   0.0000   0.0000   0.0000   0.0000
     0.0000   0.0000   0.0000   0.0000   0.0000   0.0000   0.0000   0.0000
     0.0000   0.0000   0.0000   0.0000   0.0000   0.0000   0.0000   0.0000
     0.0000   0.0000   0.0000   0.0000   0.0000   0.0000   0.0000   0.0000
     0.0000   0.0000   0.0000   0.0000   0.0000   0.0000   0.0000   0.0000
     0.0000   0.0000   0.0000   0.0000

          k = 0.4444 0.8981 0.0000 (  2670 PWs)   bands (ev):

   -17.4050 -14.7466  -8.7057  -5.1267  -0.1003   5.1525   7.0363   7.6214
     7.7380   8.7288   9.1297  10.5008  10.6731  11.2081  11.3772  11.4371
    12.2027  12.6880  13.3549  14.2350  14.4962  14.8548  16.0249  17.1537
    17.4557  17.4946  18.2350  19.1819  19.4274  19.8321  21.5668  22.0176
    23.1726  23.1776  24.9552  25.1791  25.7674  25.8016  26.0880  26.2411
    26.2481  26.3334  27.1017  27.3604  27.5658  27.5820  27.8095  28.2674
    29.3670  29.5163  29.5351  29.8099  30.1748  31.4031  32.3185  32.3763
    32.9261  32.9404  33.3201  34.2979

     occupation numbers 
     1.0000   1.0000   1.0000   1.0000   0.0000   0.0000   0.0000   0.0000
     0.0000   0.0000   0.0000   0.0000   0.0000   0.0000   0.0000   0.0000
     0.0000   0.0000   0.0000   0.0000   0.0000   0.0000   0.0000   0.0000
     0.0000   0.0000   0.0000   0.0000   0.0000   0.0000   0.0000   0.0000
     0.0000   0.0000   0.0000   0.0000   0.0000   0.0000   0.0000   0.0000
     0.0000   0.0000   0.0000   0.0000   0.0000   0.0000   0.0000   0.0000
     0.0000   0.0000   0.0000   0.0000   0.0000   0.0000   0.0000   0.0000
     0.0000   0.0000   0.0000   0.0000

          k = 0.4444 1.0264 0.0000 (  2678 PWs)   bands (ev):

   -18.2041 -13.2820  -9.3775  -5.7746   1.0141   5.8311   6.3994   6.4680
     6.5689   7.5107   7.9298   9.4857  10.2462  11.8730  12.1104  13.2350
    13.3459  13.7261  14.1571  14.4307  15.2731  15.5399  16.6133  17.1705
    17.3615  17.5651  18.9897  19.8778  20.5309  20.7044  21.0690  21.3130
    21.4339  21.7229  22.3629  22.6461  23.1009  24.1259  24.7309  25.0089
    25.0106  25.6335  26.8047  27.7212  27.9375  28.3980  29.1861  29.8998
    31.2020  31.3157  32.0849  32.3311  32.3560  32.4041  33.3829  33.5756
    34.2058  34.4023  35.1325  35.6178

     occupation numbers 
     1.0000   1.0000   1.0000   1.0000   0.0000   0.0000   0.0000   0.0000
     0.0000   0.0000   0.0000   0.0000   0.0000   0.0000   0.0000   0.0000
     0.0000   0.0000   0.0000   0.0000   0.0000   0.0000   0.0000   0.0000
     0.0000   0.0000   0.0000   0.0000   0.0000   0.0000   0.0000   0.0000
     0.0000   0.0000   0.0000   0.0000   0.0000   0.0000   0.0000   0.0000
     0.0000   0.0000   0.0000   0.0000   0.0000   0.0000   0.0000   0.0000
     0.0000   0.0000   0.0000   0.0000   0.0000   0.0000   0.0000   0.0000
     0.0000   0.0000   0.0000   0.0000

          k = 0.4444 1.1547 0.0000 (  2681 PWs)   bands (ev):

   -18.4806 -12.0305 -10.5174  -6.0217   1.6476   5.4425   5.9750   6.1125
     7.0757   7.5159   9.0185   9.1468   9.8816  10.0597  11.2846  12.9653
    13.0958  16.1933  16.2757  16.6138  16.8337  16.9281  17.1023  17.2152
    17.3089  18.0207  18.2155  18.6247  18.6288  19.4430  20.0060  20.3333
    20.7307  21.2741  21.2930  21.3361  22.7675  23.4749  23.9777  24.2463
    24.8956  25.8775  26.0567  27.5806  28.0670  28.1064  28.5573  29.3773
    30.8669  32.3878  32.6802  32.7978  32.8904  33.8318  34.0196  37.2071
    37.3868  37.6788  37.7206  38.5592

     occupation numbers 
     1.0000   1.0000   1.0000   1.0000   0.0000   0.0000   0.0000   0.0000
     0.0000   0.0000   0.0000   0.0000   0.0000   0.0000   0.0000   0.0000
     0.0000   0.0000   0.0000   0.0000   0.0000   0.0000   0.0000   0.0000
     0.0000   0.0000   0.0000   0.0000   0.0000   0.0000   0.0000   0.0000
     0.0000   0.0000   0.0000   0.0000   0.0000   0.0000   0.0000   0.0000
[...]
     0.0000   0.0000   0.0000   0.0000   0.0000   0.0000   0.0000   0.0000
     0.0000   0.0000   0.0000   0.0000

          k = 0.7778 0.9623 0.0000 (  2681 PWs)   bands (ev):

   -18.4806 -12.0305 -10.5174  -6.0217   1.6476   5.4425   5.9750   6.1125
     7.0757   7.5159   9.0185   9.1468   9.8816  10.0597  11.2846  12.9653
    13.0958  16.1933  16.2757  16.6138  16.8337  16.9281  17.1023  17.2152
    17.3089  18.0207  18.2155  18.6247  18.6288  19.4430  20.0060  20.3333
    20.7307  21.2741  21.2930  21.3361  22.7675  23.4749  23.9777  24.2463
    24.8956  25.8775  26.0567  27.5806  28.0670  28.1064  28.5573  29.3773
    30.8669  32.3878  32.6802  32.7978  32.8904  33.8318  34.0196  37.2071
    37.3868  37.6788  37.7206  38.5592

     occupation numbers 
     1.0000   1.0000   1.0000   1.0000   0.0000   0.0000   0.0000   0.0000
     0.0000   0.0000   0.0000   0.0000   0.0000   0.0000   0.0000   0.0000
     0.0000   0.0000   0.0000   0.0000   0.0000   0.0000   0.0000   0.0000
     0.0000   0.0000   0.0000   0.0000   0.0000   0.0000   0.0000   0.0000
     0.0000   0.0000   0.0000   0.0000   0.0000   0.0000   0.0000   0.0000
     0.0000   0.0000   0.0000   0.0000   0.0000   0.0000   0.0000   0.0000
     0.0000   0.0000   0.0000   0.0000   0.0000   0.0000   0.0000   0.0000
     0.0000   0.0000   0.0000   0.0000

          k = 0.7778 1.0906 0.0000 (  2666 PWs)   bands (ev):

   -16.6233 -14.1531 -11.5187  -4.1361  -0.6035   8.1738   8.4063   8.9404
     9.2388   9.3597  10.3053  10.5513  11.0890  12.2572  12.5047  12.5776
    12.8032  13.4208  13.8971  14.6529  15.2173  15.5238  15.8554  15.8701
    16.3980  16.4779  16.7067  17.5071  17.8055  18.6399  18.6693  19.0101
    19.6843  20.1096  20.1569  21.3094  21.6720  22.1275  22.8239  23.3896
    23.9171  24.0066  25.1656  25.9280  27.2750  27.4370  28.4808  28.5002
    30.1461  30.3952  31.7657  31.9318  32.9103  33.8957  35.1759  36.0507
    36.4754  36.7551  37.7952  38.0486

     occupation numbers 
     1.0000   1.0000   1.0000   1.0000   0.0000   0.0000   0.0000   0.0000
     0.0000   0.0000   0.0000   0.0000   0.0000   0.0000   0.0000   0.0000
     0.0000   0.0000   0.0000   0.0000   0.0000   0.0000   0.0000   0.0000
     0.0000   0.0000   0.0000   0.0000   0.0000   0.0000   0.0000   0.0000
     0.0000   0.0000   0.0000   0.0000   0.0000   0.0000   0.0000   0.0000
     0.0000   0.0000   0.0000   0.0000   0.0000   0.0000   0.0000   0.0000
     0.0000   0.0000   0.0000   0.0000   0.0000   0.0000   0.0000   0.0000
     0.0000   0.0000   0.0000   0.0000

          k = 0.7778 1.2189 0.0000 (  2666 PWs)   bands (ev):

   -16.6233 -14.1531 -11.5187  -4.1361  -0.6035   8.1738   8.4063   8.9404
     9.2388   9.3597  10.3053  10.5513  11.0890  12.2572  12.5047  12.5776
    12.8032  13.4208  13.8971  14.6529  15.2173  15.5237  15.8554  15.8701
    16.3980  16.4779  16.7067  17.5071  17.8055  18.6399  18.6693  19.0101
    19.6843  20.1096  20.1569  21.3094  21.6720  22.1275  22.8239  23.3896
    23.9171  24.0066  25.1656  25.9280  27.2750  27.4370  28.4808  28.5002
    30.1461  30.3952  31.7657  31.9318  32.9103  33.8957  35.1759  36.0507
    36.4754  36.7551  37.7952  38.0486

     occupation numbers 
     1.0000   1.0000   1.0000   1.0000   0.0000   0.0000   0.0000   0.0000
     0.0000   0.0000   0.0000   0.0000   0.0000   0.0000   0.0000   0.0000
     0.0000   0.0000   0.0000   0.0000   0.0000   0.0000   0.0000   0.0000
     0.0000   0.0000   0.0000   0.0000   0.0000   0.0000   0.0000   0.0000
     0.0000   0.0000   0.0000   0.0000   0.0000   0.0000   0.0000   0.0000
     0.0000   0.0000   0.0000   0.0000   0.0000   0.0000   0.0000   0.0000
     0.0000   0.0000   0.0000   0.0000   0.0000   0.0000   0.0000   0.0000
     0.0000   0.0000   0.0000   0.0000

          k = 0.7778 1.3472 0.0000 (  2681 PWs)   bands (ev):

   -18.4806 -12.0305 -10.5174  -6.0217   1.6476   5.4425   5.9750   6.1125
     7.0757   7.5159   9.0185   9.1468   9.8816  10.0597  11.2846  12.9653
    13.0958  16.1933  16.2757  16.6138  16.8337  16.9281  17.1023  17.2152
    17.3089  18.0207  18.2155  18.6247  18.6288  19.4430  20.0060  20.3333
    20.7307  21.2741  21.2930  21.3361  22.7675  23.4749  23.9777  24.2463
    24.8956  25.8775  26.0567  27.5806  28.0670  28.1064  28.5573  29.3773
    30.8669  32.3878  32.6802  32.7978  32.8904  33.8318  34.0196  37.2071
    37.3868  37.6788  37.7206  38.5592

     occupation numbers 
     1.0000   1.0000   1.0000   1.0000   0.0000   0.0000   0.0000   0.0000
     0.0000   0.0000   0.0000   0.0000   0.0000   0.0000   0.0000   0.0000
     0.0000   0.0000   0.0000   0.0000   0.0000   0.0000   0.0000   0.0000
     0.0000   0.0000   0.0000   0.0000   0.0000   0.0000   0.0000   0.0000
     0.0000   0.0000   0.0000   0.0000   0.0000   0.0000   0.0000   0.0000
     0.0000   0.0000   0.0000   0.0000   0.0000   0.0000   0.0000   0.0000
     0.0000   0.0000   0.0000   0.0000   0.0000   0.0000   0.0000   0.0000
     0.0000   0.0000   0.0000   0.0000

          k = 0.7778 1.4755 0.0000 (  2702 PWs)   bands (ev):

   -19.8862 -10.5130  -8.4944  -7.6108   3.4487   3.8439   4.0217   4.0827
     5.1344   5.5044   6.8455   7.1940   7.8732  10.0866  10.4366  11.0175
    13.4926  14.8935  14.9376  15.7438  18.3851  18.5419  18.8931  19.0347
    19.5827  19.9659  20.3110  21.4861  21.7174  22.3926  22.5321  22.6129
    23.1371  23.7127  24.0168  24.2346  24.4568  25.4792  26.0846  26.0874
    26.2994  26.8702  28.5789  29.1537  29.3959  29.9510  30.4128  31.5591
    31.5770  32.5375  33.3473  33.5343  33.6573  33.7008  34.2202  34.5292
    34.8276  34.9148  36.4549  36.9485

     occupation numbers 
     1.0000   1.0000   1.0000   1.0000   0.0000   0.0000   0.0000   0.0000
     0.0000   0.0000   0.0000   0.0000   0.0000   0.0000   0.0000   0.0000
     0.0000   0.0000   0.0000   0.0000   0.0000   0.0000   0.0000   0.0000
     0.0000   0.0000   0.0000   0.0000   0.0000   0.0000   0.0000   0.0000
     0.0000   0.0000   0.0000   0.0000   0.0000   0.0000   0.0000   0.0000
     0.0000   0.0000   0.0000   0.0000   0.0000   0.0000   0.0000   0.0000
     0.0000   0.0000   0.0000   0.0000   0.0000   0.0000   0.0000   0.0000
     0.0000   0.0000   0.0000   0.0000

          k = 0.8889 0.5132 0.0000 (  2728 PWs)   bands (ev):

   -21.6192  -9.6437  -6.4972  -5.9551   1.0414   1.5494   1.6453   2.7192
     3.0874   4.8164   5.4390   6.1242   7.2428   7.7903   8.2046   8.6199
    10.8853  11.5488  12.5651  16.0097  17.3110  20.9430  21.1190  22.8412
    23.3599  24.0451  26.6712  26.8041  27.4091  27.5270  28.7993  28.8143
    28.9485  29.1222  29.9461  30.6029  30.9891  31.0058  31.0618  31.0814
    31.2147  31.2630  31.8991  32.3048  32.4040  32.6364  32.7146  33.7393
    33.9372  34.1898  34.5338  34.7992  35.0160  35.0790  36.0924  36.5508
    37.0842  37.2428  37.4766  37.5652

     occupation numbers 
     1.0000   1.0000   1.0000   1.0000   0.0000   0.0000   0.0000   0.0000
     0.0000   0.0000   0.0000   0.0000   0.0000   0.0000   0.0000   0.0000
     0.0000   0.0000   0.0000   0.0000   0.0000   0.0000   0.0000   0.0000
     0.0000   0.0000   0.0000   0.0000   0.0000   0.0000   0.0000   0.0000
     0.0000   0.0000   0.0000   0.0000   0.0000   0.0000   0.0000   0.0000
     0.0000   0.0000   0.0000   0.0000   0.0000   0.0000   0.0000   0.0000
     0.0000   0.0000   0.0000   0.0000   0.0000   0.0000   0.0000   0.0000
     0.0000   0.0000   0.0000   0.0000

          k = 0.8889 0.6415 0.0000 (  2728 PWs)   bands (ev):

   -21.6192  -9.6437  -6.4972  -5.9551   1.0414   1.5494   1.6453   2.7192
     3.0874   4.8164   5.4390   6.1242   7.2428   7.7903   8.2046   8.6199
    10.8853  11.5488  12.5651  16.0097  17.3110  20.9430  21.1190  22.8412
    23.3599  24.0451  26.6712  26.8041  27.4091  27.5270  28.7993  28.8143
    28.9485  29.1222  29.9461  30.6029  30.9891  31.0058  31.0618  31.0814
    31.2147  31.2630  31.8991  32.3048  32.4040  32.6364  32.7146  33.7393
    33.9372  34.1898  34.5338  34.7992  35.0160  35.0790  36.0924  36.5508
    37.0842  37.2428  37.4766  37.5652

     occupation numbers 
     1.0000   1.0000   1.0000   1.0000   0.0000   0.0000   0.0000   0.0000
     0.0000   0.0000   0.0000   0.0000   0.0000   0.0000   0.0000   0.0000
     0.0000   0.0000   0.0000   0.0000   0.0000   0.0000   0.0000   0.0000
     0.0000   0.0000   0.0000   0.0000   0.0000   0.0000   0.0000   0.0000
     0.0000   0.0000   0.0000   0.0000   0.0000   0.0000   0.0000   0.0000
     0.0000   0.0000   0.0000   0.0000   0.0000   0.0000   0.0000   0.0000
     0.0000   0.0000   0.0000   0.0000   0.0000   0.0000   0.0000   0.0000
     0.0000   0.0000   0.0000   0.0000

          k = 0.8889 0.7698 0.0000 (  2735 PWs)   bands (ev):

   -21.0372  -8.9525  -8.0565  -7.1056   1.8450   2.3609   2.4579   3.5243
     3.8941   5.6130   6.2225   6.5273   6.7564   8.3134   8.5713   9.4227
    12.2854  12.3586  13.3578  16.5384  18.0865  19.2795  21.9741  22.3975
    23.0664  23.6295  23.8767  24.2881  24.5388  24.6339  24.8027  24.8637
    25.9414  25.9646  26.2529  26.2714  27.3877  28.0833  28.2609  28.3554
    28.5082  29.8314  29.9036  31.1247  31.3586  31.5276  31.5757  34.0480
    34.5343  34.5843  34.7293  35.3070  35.4123  35.5239  35.5696  35.5712
    35.8204  36.0676  36.1336  36.7411

     occupation numbers 
     1.0000   1.0000   1.0000   1.0000   0.0000   0.0000   0.0000   0.0000
     0.0000   0.0000   0.0000   0.0000   0.0000   0.0000   0.0000   0.0000
     0.0000   0.0000   0.0000   0.0000   0.0000   0.0000   0.0000   0.0000
     0.0000   0.0000   0.0000   0.0000   0.0000   0.0000   0.0000   0.0000
     0.0000   0.0000   0.0000   0.0000   0.0000   0.0000   0.0000   0.0000
     0.0000   0.0000   0.0000   0.0000   0.0000   0.0000   0.0000   0.0000
     0.0000   0.0000   0.0000   0.0000   0.0000   0.0000   0.0000   0.0000
     0.0000   0.0000   0.0000   0.0000

          k = 0.8889 0.8981 0.0000 (  2702 PWs)   bands (ev):

   -19.8862 -10.5130  -8.4944  -7.6108   3.4487   3.8439   4.0217   4.0827
     5.1344   5.5044   6.8455   7.1940   7.8732  10.0866  10.4366  11.0175
    13.4926  14.8935  14.9376  15.7438  18.3851  18.5419  18.8931  19.0347
    19.5827  19.9659  20.3110  21.4861  21.7174  22.3926  22.5321  22.6129
    23.1371  23.7127  24.0168  24.2346  24.4568  25.4792  26.0846  26.0874
    26.2994  26.8702  28.5789  29.1537  29.3959  29.9510  30.4128  31.5591
    31.5770  32.5375  33.3473  33.5343  33.6573  33.7008  34.2202  34.5292
    34.8276  34.9148  36.4549  36.9485

     occupation numbers 
     1.0000   1.0000   1.0000   1.0000   0.0000   0.0000   0.0000   0.0000
     0.0000   0.0000   0.0000   0.0000   0.0000   0.0000   0.0000   0.0000
     0.0000   0.0000   0.0000   0.0000   0.0000   0.0000   0.0000   0.0000
     0.0000   0.0000   0.0000   0.0000   0.0000   0.0000   0.0000   0.0000
     0.0000   0.0000   0.0000   0.0000   0.0000   0.0000   0.0000   0.0000
     0.0000   0.0000   0.0000   0.0000   0.0000   0.0000   0.0000   0.0000
     0.0000   0.0000   0.0000   0.0000   0.0000   0.0000   0.0000   0.0000
     0.0000   0.0000   0.0000   0.0000

          k = 0.8889 1.0264 0.0000 (  2678 PWs)   bands (ev):

   -18.2041 -13.2820  -9.3775  -5.7746   1.0141   5.8311   6.3994   6.4680
     6.5689   7.5107   7.9298   9.4857  10.2462  11.8730  12.1104  13.2350
    13.3459  13.7261  14.1571  14.4307  15.2731  15.5399  16.6133  17.1705
    17.3615  17.5651  18.9897  19.8778  20.5309  20.7044  21.0690  21.3130
    21.4339  21.7229  22.3629  22.6461  23.1009  24.1259  24.7309  25.0089
    25.0106  25.6335  26.8047  27.7212  27.9375  28.3980  29.1861  29.8998
    31.2020  31.3157  32.0849  32.3311  32.3560  32.4041  33.3829  33.5756
    34.2058  34.4023  35.1325  35.6178

     occupation numbers 
     1.0000   1.0000   1.0000   1.0000   0.0000   0.0000   0.0000   0.0000
     0.0000   0.0000   0.0000   0.0000   0.0000   0.0000   0.0000   0.0000
     0.0000   0.0000   0.0000   0.0000   0.0000   0.0000   0.0000   0.0000
     0.0000   0.0000   0.0000   0.0000   0.0000   0.0000   0.0000   0.0000
     0.0000   0.0000   0.0000   0.0000   0.0000   0.0000   0.0000   0.0000
     0.0000   0.0000   0.0000   0.0000   0.0000   0.0000   0.0000   0.0000
     0.0000   0.0000   0.0000   0.0000   0.0000   0.0000   0.0000   0.0000
     0.0000   0.0000   0.0000   0.0000

          k = 0.8889 1.1547 0.0000 (  2658 PWs)   bands (ev):

   -16.4519 -15.4361  -9.6781  -4.4308  -0.7205   6.3563   8.9067   9.0327
     9.3519   9.6650   9.7599   9.7608  10.3696  10.7989  11.0892  11.1293
    11.9802  12.8687  13.2935  13.3780  14.0983  15.8167  15.8291  16.3190
    16.7857  17.3990  19.5697  19.6497  19.6755  19.9129  20.1924  20.8376
    20.9686  21.6926  21.9811  22.1889  22.8367  22.9351  24.0734  24.5696
    24.5699  25.6998  25.9913  26.4363  27.3924  27.7072  29.3190  30.3492
    30.7194  31.0700  31.3121  31.6206  31.7573  31.9533  31.9977  33.1342
    33.1594  34.8025  34.9026  35.1803

     occupation numbers 
     1.0000   1.0000   1.0000   1.0000   0.0000   0.0000   0.0000   0.0000
     0.0000   0.0000   0.0000   0.0000   0.0000   0.0000   0.0000   0.0000
     0.0000   0.0000   0.0000   0.0000   0.0000   0.0000   0.0000   0.0000
     0.0000   0.0000   0.0000   0.0000   0.0000   0.0000   0.0000   0.0000
     0.0000   0.0000   0.0000   0.0000   0.0000   0.0000   0.0000   0.0000
     0.0000   0.0000   0.0000   0.0000   0.0000   0.0000   0.0000   0.0000
     0.0000   0.0000   0.0000   0.0000   0.0000   0.0000   0.0000   0.0000
     0.0000   0.0000   0.0000   0.0000

          k = 0.8889 1.2830 0.0000 (  2678 PWs)   bands (ev):

   -18.2041 -13.2820  -9.3775  -5.7746   1.0141   5.8311   6.3994   6.4680
     6.5689   7.5107   7.9298   9.4857  10.2462  11.8730  12.1104  13.2350
    13.3459  13.7261  14.1571  14.4307  15.2731  15.5399  16.6133  17.1705
    17.3615  17.5651  18.9897  19.8778  20.5309  20.7044  21.0690  21.3130
    21.4339  21.7229  22.3629  22.6461  23.1009  24.1259  24.7309  25.0089
    25.0106  25.6335  26.8047  27.7212  27.9375  28.3980  29.1861  29.8998
    31.2020  31.3157  32.0849  32.3311  32.3560  32.4041  33.3829  33.5756
    34.2058  34.4023  35.1325  35.6178

     occupation numbers 
     1.0000   1.0000   1.0000   1.0000   0.0000   0.0000   0.0000   0.0000
     0.0000   0.0000   0.0000   0.0000   0.0000   0.0000   0.0000   0.0000
     0.0000   0.0000   0.0000   0.0000   0.0000   0.0000   0.0000   0.0000
     0.0000   0.0000   0.0000   0.0000   0.0000   0.0000   0.0000   0.0000
     0.0000   0.0000   0.0000   0.0000   0.0000   0.0000   0.0000   0.0000
     0.0000   0.0000   0.0000   0.0000   0.0000   0.0000   0.0000   0.0000
     0.0000   0.0000   0.0000   0.0000   0.0000   0.0000   0.0000   0.0000
     0.0000   0.0000   0.0000   0.0000

          k = 0.8889 1.4113 0.0000 (  2702 PWs)   bands (ev):

   -19.8862 -10.5130  -8.4944  -7.6108   3.4487   3.8439   4.0217   4.0827
     5.1344   5.5044   6.8455   7.1940   7.8732  10.0866  10.4366  11.0175
    13.4926  14.8935  14.9376  15.7438  18.3851  18.5419  18.8931  19.0347
    19.5827  19.9659  20.3110  21.4861  21.7174  22.3926  22.5321  22.6129
    23.1371  23.7127  24.0168  24.2346  24.4568  25.4792  26.0846  26.0874
    26.2994  26.8702  28.5789  29.1537  29.3959  29.9510  30.4128  31.5591
    31.5770  32.5375  33.3473  33.5343  33.6573  33.7008  34.2202  34.5292
    34.8276  34.9148  36.4549  36.9485

     occupation numbers 
     1.0000   1.0000   1.0000   1.0000   0.0000   0.0000   0.0000   0.0000
     0.0000   0.0000   0.0000   0.0000   0.0000   0.0000   0.0000   0.0000
     0.0000   0.0000   0.0000   0.0000   0.0000   0.0000   0.0000   0.0000
     0.0000   0.0000   0.0000   0.0000   0.0000   0.0000   0.0000   0.0000
     0.0000   0.0000   0.0000   0.0000   0.0000   0.0000   0.0000   0.0000
     0.0000   0.0000   0.0000   0.0000   0.0000   0.0000   0.0000   0.0000
     0.0000   0.0000   0.0000   0.0000   0.0000   0.0000   0.0000   0.0000
     0.0000   0.0000   0.0000   0.0000

          k = 0.8889 1.5396 0.0000 (  2735 PWs)   bands (ev):

   -21.0372  -8.9525  -8.0565  -7.1056   1.8450   2.3609   2.4579   3.5243
     3.8941   5.6130   6.2225   6.5273   6.7564   8.3134   8.5713   9.4227
    12.2854  12.3586  13.3578  16.5384  18.0865  19.2795  21.9741  22.3975
    23.0664  23.6295  23.8767  24.2881  24.5388  24.6339  24.8027  24.8637
    25.9414  25.9646  26.2529  26.2714  27.3877  28.0833  28.2609  28.3554
    28.5082  29.8314  29.9036  31.1247  31.3586  31.5276  31.5757  34.0480
    34.5343  34.5843  34.7293  35.3070  35.4123  35.5239  35.5696  35.5712
    35.8204  36.0676  36.1336  36.7411

     occupation numbers 
     1.0000   1.0000   1.0000   1.0000   0.0000   0.0000   0.0000   0.0000
     0.0000   0.0000   0.0000   0.0000   0.0000   0.0000   0.0000   0.0000
     0.0000   0.0000   0.0000   0.0000   0.0000   0.0000   0.0000   0.0000
     0.0000   0.0000   0.0000   0.0000   0.0000   0.0000   0.0000   0.0000
     0.0000   0.0000   0.0000   0.0000   0.0000   0.0000   0.0000   0.0000
     0.0000   0.0000   0.0000   0.0000   0.0000   0.0000   0.0000   0.0000
     0.0000   0.0000   0.0000   0.0000   0.0000   0.0000   0.0000   0.0000
     0.0000   0.0000   0.0000   0.0000

     the Fermi energy is    -2.3042 ev
     (compare with:    -2.3044 eV, computed in scf)

     Writing all to output data dir ./out/graphene.save/ :
     XML data file, pseudopotentials, collected wavefunctions
 
     init_run     :      0.03s CPU      0.05s WALL (       1 calls)
     electrons    :     29.75s CPU     30.70s WALL (       1 calls)

     Called by init_run:
     wfcinit      :      0.00s CPU      0.01s WALL (       1 calls)
     wfcinit:atom :      0.00s CPU      0.00s WALL (      81 calls)
     wfcinit:wfcr :      0.61s CPU      0.67s WALL (      81 calls)
     potinit      :      0.01s CPU      0.02s WALL (       1 calls)
     hinit0       :      0.01s CPU      0.01s WALL (       1 calls)

     Called by electrons:
     c_bands      :     29.75s CPU     30.69s WALL (       1 calls)
     v_of_rho     :      0.00s CPU      0.00s WALL (       1 calls)
     v_h          :      0.00s CPU      0.00s WALL (       1 calls)
     v_xc         :      0.00s CPU      0.00s WALL (       1 calls)
     newd         :      0.00s CPU      0.00s WALL (       1 calls)
     PAW_pot      :      0.01s CPU      0.01s WALL (       1 calls)

     Called by c_bands:
     init_us_2    :      0.00s CPU      0.00s WALL (      81 calls)
     cegterg      :     29.07s CPU     29.83s WALL (     209 calls)

     Called by sum_band:

     Called by *egterg:
     cdiaghg      :     14.20s CPU     14.28s WALL (    3743 calls)
     cegterg:over :      1.22s CPU      1.31s WALL (    3662 calls)
     cegterg:upda :      0.19s CPU      0.20s WALL (    3662 calls)
     cegterg:last :      0.48s CPU      0.49s WALL (    1774 calls)
     h_psi        :     12.27s CPU     12.89s WALL (    3952 calls)
     s_psi        :      0.05s CPU      0.05s WALL (    3952 calls)
     g_psi        :      0.03s CPU      0.03s WALL (    3662 calls)

     Called by h_psi:
     h_psi:calbec :      0.25s CPU      0.26s WALL (    3952 calls)
     vloc_psi     :     11.91s CPU     12.52s WALL (    3952 calls)
     add_vuspsi   :      0.05s CPU      0.06s WALL (    3952 calls)

     General routines
     calbec       :      0.24s CPU      0.25s WALL (    3952 calls)
     fft          :      0.00s CPU      0.01s WALL (      12 calls)
     fftw         :     11.08s CPU     11.64s WALL (  231384 calls)
     davcio       :      0.01s CPU      0.01s WALL (     162 calls)
 
     Parallel routines

     PAW routines
     PAW_pot      :      0.01s CPU      0.01s WALL (       1 calls)
 
     PWSCF        :     30.71s CPU     36.02s WALL

 
   This run was terminated on:   5: 6:49  26Jun2024            

=------------------------------------------------------------------------------=
   JOB DONE.
=------------------------------------------------------------------------------=
