
     Program PWSCF v.7.3.1 starts on 26Jun2024 at  5: 3:54 

     This program is part of the open-source Quantum ESPRESSO suite
     for quantum simulation of materials; please cite
         "P. Giannozzi et al., J. Phys.:Condens. Matter 21 395502 (2009);
         "P. Giannozzi et al., J. Phys.:Condens. Matter 29 465901 (2017);
         "P. Giannozzi et al., J. Chem. Phys. 152 154105 (2020);
          URL http://www.quantum-espresso.org", 
     in publications or presentations arising from this work. More details at
     http://www.quantum-espresso.org/quote

     Parallel version (MPI), running on    22 processors

     MPI processes distributed on     1 nodes
     188176 MiB available memory on the printing compute node when the environment starts
 
     Waiting for input...
     Reading input from standard input

     Current dimensions of program PWSCF are:
     Max number of different atomic species (ntypx) = 10
     Max number of k-points (npk) =  40000
     Max angular momentum in pseudopotentials (lmaxx) =  4
     file C.pbe-n-kjpaw_psl.0.1.UPF: wavefunction(s)  2P renormalized
     Message from routine set_cutoff:
     ecutrho < 4*ecutwfc, are you sure?
     Message from routine setup:
     using ibrav=0 with symmetry is DISCOURAGED, use correct ibrav instead
 
     R & G space division:  proc/nbgrp/npool/nimage =      22
     Subspace diagonalization in iterative solution of the eigenvalue problem:
     a serial algorithm will be used

 
     Parallelization info
     --------------------
     sticks:   dense  smooth     PW     G-vecs:    dense   smooth      PW
     Min           9       9      3                  941      941     177
     Max          10      10      4                  988      988     196
     Sum         211     211     73                21175    21175    4021
 
     Using Slab Decomposition
 


     bravais-lattice index     =            0
     lattice parameter (alat)  =       4.6487  a.u.
     unit-cell volume          =     707.3387 (a.u.)^3
     number of atoms/cell      =            2
     number of atomic types    =            1
     number of electrons       =         8.00
     number of Kohn-Sham states=            8
     kinetic-energy cutoff     =      37.0000  Ry
     charge density cutoff     =     147.0000  Ry
     scf convergence threshold =      4.0E-10
     mixing beta               =       0.4000
     number of iterations used =            8  plain     mixing
     Exchange-correlation= SLA  PW   PBX  PBC
                           (   1   4   3   4   0   0   0)

     celldm(1)=   4.648726  celldm(2)=   0.000000  celldm(3)=   0.000000
     celldm(4)=   0.000000  celldm(5)=   0.000000  celldm(6)=   0.000000

     crystal axes: (cart. coord. in units of alat)
               a(1) = (   1.000000   0.000000   0.000000 )  
               a(2) = (  -0.500000   0.866025   0.000000 )  
               a(3) = (   0.000000   0.000000   8.130081 )  

     reciprocal axes: (cart. coord. in units 2 pi/alat)
               b(1) = (  1.000000  0.577350  0.000000 )  
               b(2) = (  0.000000  1.154701  0.000000 )  
               b(3) = (  0.000000  0.000000  0.123000 )  


     PseudoPot. # 1 for C  read from file:
     ../../pseudo/C.pbe-n-kjpaw_psl.0.1.UPF
     MD5 check sum: c849119b86527ef673bbe9c4f1f1b6ab
     Pseudo is Projector augmented-wave + core cor, Zval =  4.0
     Generated using "atomic" code by A. Dal Corso  v.5.0.2 svn rev. 9415
     Shape of augmentation charge: BESSEL
     Using radial grid of 1073 points,  4 beta functions with: 
                l(1) =   0
                l(2) =   0
                l(3) =   1
                l(4) =   1
     Q(r) pseudized with 0 coefficients 


     atomic species   valence    mass     pseudopotential
     C                 4.00    12.01100     C ( 1.00)

     24 Sym. Ops., with inversion, found


                                    s                        frac. trans.

      isym =  1     identity                                     

 cryst.   s( 1) = (     1          0          0      )
                  (     0          1          0      )
                  (     0          0          1      )

 cart.    s( 1) = (  1.0000000  0.0000000  0.0000000 )
                  (  0.0000000  1.0000000  0.0000000 )
                  (  0.0000000  0.0000000  1.0000000 )


      isym =  2     180 deg rotation - cart. axis [0,0,1]        

 cryst.   s( 2) = (    -1          0          0      )
                  (     0         -1          0      )
                  (     0          0          1      )

 cart.    s( 2) = ( -1.0000000  0.0000000  0.0000000 )
                  (  0.0000000 -1.0000000  0.0000000 )
                  (  0.0000000  0.0000000  1.0000000 )


      isym =  3     180 deg rotation - cart. axis [0,1,0]        

 cryst.   s( 3) = (    -1          0          0      )
                  (     1          1          0      )
                  (     0          0         -1      )

 cart.    s( 3) = ( -1.0000000  0.0000000  0.0000000 )
                  (  0.0000000  1.0000000  0.0000000 )
                  (  0.0000000  0.0000000 -1.0000000 )


      isym =  4     180 deg rotation - cart. axis [1,0,0]        

 cryst.   s( 4) = (     1          0          0      )
                  (    -1         -1          0      )
                  (     0          0         -1      )

 cart.    s( 4) = (  1.0000000  0.0000000  0.0000000 )
                  (  0.0000000 -1.0000000  0.0000000 )
                  (  0.0000000  0.0000000 -1.0000000 )


      isym =  5      60 deg rotation - cryst. axis [0,0,1]       

 cryst.   s( 5) = (     1          1          0      )
                  (    -1          0          0      )
                  (     0          0          1      )

 cart.    s( 5) = (  0.5000000 -0.8660254  0.0000000 )
                  (  0.8660254  0.5000000  0.0000000 )
                  (  0.0000000  0.0000000  1.0000000 )


      isym =  6      60 deg rotation - cryst. axis [0,0,-1]      

 cryst.   s( 6) = (     0         -1          0      )
                  (     1          1          0      )
                  (     0          0          1      )

 cart.    s( 6) = (  0.5000000  0.8660254  0.0000000 )
                  ( -0.8660254  0.5000000  0.0000000 )
                  (  0.0000000  0.0000000  1.0000000 )


      isym =  7     120 deg rotation - cryst. axis [0,0,1]       

 cryst.   s( 7) = (     0          1          0      )
                  (    -1         -1          0      )
                  (     0          0          1      )

 cart.    s( 7) = ( -0.5000000 -0.8660254  0.0000000 )
                  (  0.8660254 -0.5000000  0.0000000 )
                  (  0.0000000  0.0000000  1.0000000 )


      isym =  8     120 deg rotation - cryst. axis [0,0,-1]      

 cryst.   s( 8) = (    -1         -1          0      )
                  (     1          0          0      )
                  (     0          0          1      )

 cart.    s( 8) = ( -0.5000000  0.8660254  0.0000000 )
                  ( -0.8660254 -0.5000000  0.0000000 )
                  (  0.0000000  0.0000000  1.0000000 )


      isym =  9     180 deg rotation - cryst. axis [1,-1,0]      

 cryst.   s( 9) = (     0         -1          0      )
                  (    -1          0          0      )
                  (     0          0         -1      )

 cart.    s( 9) = (  0.5000000 -0.8660254  0.0000000 )
                  ( -0.8660254 -0.5000000  0.0000000 )
                  (  0.0000000  0.0000000 -1.0000000 )


      isym = 10     180 deg rotation - cryst. axis [2,1,0]       

 cryst.   s(10) = (     1          1          0      )
                  (     0         -1          0      )
                  (     0          0         -1      )

 cart.    s(10) = (  0.5000000  0.8660254  0.0000000 )
                  (  0.8660254 -0.5000000  0.0000000 )
                  (  0.0000000  0.0000000 -1.0000000 )


      isym = 11     180 deg rotation - cryst. axis [0,1,0]       

 cryst.   s(11) = (    -1         -1          0      )
                  (     0          1          0      )
                  (     0          0         -1      )

 cart.    s(11) = ( -0.5000000 -0.8660254  0.0000000 )
                  ( -0.8660254  0.5000000  0.0000000 )
                  (  0.0000000  0.0000000 -1.0000000 )


      isym = 12     180 deg rotation - cryst. axis [1,1,0]       

 cryst.   s(12) = (     0          1          0      )
                  (     1          0          0      )
                  (     0          0         -1      )

 cart.    s(12) = ( -0.5000000  0.8660254  0.0000000 )
                  (  0.8660254  0.5000000  0.0000000 )
                  (  0.0000000  0.0000000 -1.0000000 )


      isym = 13     inversion                                    

 cryst.   s(13) = (    -1          0          0      )
                  (     0         -1          0      )
                  (     0          0         -1      )

 cart.    s(13) = ( -1.0000000  0.0000000  0.0000000 )
                  (  0.0000000 -1.0000000  0.0000000 )
                  (  0.0000000  0.0000000 -1.0000000 )


      isym = 14     inv. 180 deg rotation - cart. axis [0,0,1]   

 cryst.   s(14) = (     1          0          0      )
                  (     0          1          0      )
                  (     0          0         -1      )

 cart.    s(14) = (  1.0000000  0.0000000  0.0000000 )
                  (  0.0000000  1.0000000  0.0000000 )
                  (  0.0000000  0.0000000 -1.0000000 )


      isym = 15     inv. 180 deg rotation - cart. axis [0,1,0]   

 cryst.   s(15) = (     1          0          0      )
                  (    -1         -1          0      )
                  (     0          0          1      )

 cart.    s(15) = (  1.0000000  0.0000000  0.0000000 )
                  (  0.0000000 -1.0000000  0.0000000 )
                  (  0.0000000  0.0000000  1.0000000 )


      isym = 16     inv. 180 deg rotation - cart. axis [1,0,0]   

 cryst.   s(16) = (    -1          0          0      )
                  (     1          1          0      )
                  (     0          0          1      )

 cart.    s(16) = ( -1.0000000  0.0000000  0.0000000 )
                  (  0.0000000  1.0000000  0.0000000 )
                  (  0.0000000  0.0000000  1.0000000 )


      isym = 17     inv.  60 deg rotation - cryst. axis [0,0,1]  

 cryst.   s(17) = (    -1         -1          0      )
                  (     1          0          0      )
                  (     0          0         -1      )

 cart.    s(17) = ( -0.5000000  0.8660254  0.0000000 )
                  ( -0.8660254 -0.5000000  0.0000000 )
                  (  0.0000000  0.0000000 -1.0000000 )


      isym = 18     inv.  60 deg rotation - cryst. axis [0,0,-1] 

 cryst.   s(18) = (     0          1          0      )
                  (    -1         -1          0      )
                  (     0          0         -1      )

 cart.    s(18) = ( -0.5000000 -0.8660254  0.0000000 )
                  (  0.8660254 -0.5000000  0.0000000 )
                  (  0.0000000  0.0000000 -1.0000000 )


      isym = 19     inv. 120 deg rotation - cryst. axis [0,0,1]  

 cryst.   s(19) = (     0         -1          0      )
                  (     1          1          0      )
                  (     0          0         -1      )

 cart.    s(19) = (  0.5000000  0.8660254  0.0000000 )
                  ( -0.8660254  0.5000000  0.0000000 )
                  (  0.0000000  0.0000000 -1.0000000 )


      isym = 20     inv. 120 deg rotation - cryst. axis [0,0,-1] 

 cryst.   s(20) = (     1          1          0      )
                  (    -1          0          0      )
                  (     0          0         -1      )

 cart.    s(20) = (  0.5000000 -0.8660254  0.0000000 )
                  (  0.8660254  0.5000000  0.0000000 )
                  (  0.0000000  0.0000000 -1.0000000 )


      isym = 21     inv. 180 deg rotation - cryst. axis [1,-1,0] 

 cryst.   s(21) = (     0          1          0      )
                  (     1          0          0      )
                  (     0          0          1      )

 cart.    s(21) = ( -0.5000000  0.8660254  0.0000000 )
                  (  0.8660254  0.5000000  0.0000000 )
                  (  0.0000000  0.0000000  1.0000000 )


      isym = 22     inv. 180 deg rotation - cryst. axis [2,1,0]  

 cryst.   s(22) = (    -1         -1          0      )
                  (     0          1          0      )
                  (     0          0          1      )

 cart.    s(22) = ( -0.5000000 -0.8660254  0.0000000 )
                  ( -0.8660254  0.5000000  0.0000000 )
                  (  0.0000000  0.0000000  1.0000000 )


      isym = 23     inv. 180 deg rotation - cryst. axis [0,1,0]  

 cryst.   s(23) = (     1          1          0      )
                  (     0         -1          0      )
                  (     0          0          1      )

 cart.    s(23) = (  0.5000000  0.8660254  0.0000000 )
                  (  0.8660254 -0.5000000  0.0000000 )
                  (  0.0000000  0.0000000  1.0000000 )


      isym = 24     inv. 180 deg rotation - cryst. axis [1,1,0]  

 cryst.   s(24) = (     0         -1          0      )
                  (    -1          0          0      )
                  (     0          0          1      )

 cart.    s(24) = (  0.5000000 -0.8660254  0.0000000 )
                  ( -0.8660254 -0.5000000  0.0000000 )
                  (  0.0000000  0.0000000  1.0000000 )


   Cartesian axes

     site n.     atom                  positions (alat units)
         1        C      tau(   1) = (   0.0000000   0.5773503   0.0000000  )
         2        C      tau(   2) = (   0.5000000   0.2886751   0.0000000  )

   Crystallographic axes

     site n.     atom                  positions (cryst. coord.)
         1        C      tau(   1) = (  0.3333333  0.6666667  0.0000000  )
         2        C      tau(   2) = (  0.6666667  0.3333333  0.0000000  )

     number of k points=    12  Marzari-Vanderbilt smearing, width (Ry)=  0.0100
                       cart. coord. in units 2pi/alat
        k(    1) = (   0.0000000   0.0000000   0.0000000), wk =   0.0246914
        k(    2) = (   0.0000000   0.1283001   0.0000000), wk =   0.1481481
        k(    3) = (   0.0000000   0.2566001   0.0000000), wk =   0.1481481
        k(    4) = (   0.0000000   0.3849002   0.0000000), wk =   0.1481481
        k(    5) = (   0.0000000   0.5132002   0.0000000), wk =   0.1481481
        k(    6) = (   0.1111111   0.1924501   0.0000000), wk =   0.1481481
        k(    7) = (   0.1111111   0.3207501   0.0000000), wk =   0.2962963
        k(    8) = (   0.1111111   0.4490502   0.0000000), wk =   0.2962963
        k(    9) = (   0.1111111   0.5773503   0.0000000), wk =   0.1481481
        k(   10) = (   0.2222222   0.3849002   0.0000000), wk =   0.1481481
        k(   11) = (   0.2222222   0.5132002   0.0000000), wk =   0.2962963
        k(   12) = (   0.3333333   0.5773503   0.0000000), wk =   0.0493827

                       cryst. coord.
        k(    1) = (   0.0000000   0.0000000   0.0000000), wk =   0.0246914
        k(    2) = (   0.0000000   0.1111111   0.0000000), wk =   0.1481481
        k(    3) = (   0.0000000   0.2222222   0.0000000), wk =   0.1481481
        k(    4) = (   0.0000000   0.3333333   0.0000000), wk =   0.1481481
        k(    5) = (   0.0000000   0.4444444   0.0000000), wk =   0.1481481
        k(    6) = (   0.1111111   0.1111111   0.0000000), wk =   0.1481481
        k(    7) = (   0.1111111   0.2222222   0.0000000), wk =   0.2962963
        k(    8) = (   0.1111111   0.3333333   0.0000000), wk =   0.2962963
        k(    9) = (   0.1111111   0.4444444   0.0000000), wk =   0.1481481
        k(   10) = (   0.2222222   0.2222222   0.0000000), wk =   0.1481481
        k(   11) = (   0.2222222   0.3333333   0.0000000), wk =   0.2962963
        k(   12) = (   0.3333333   0.3333333   0.0000000), wk =   0.0493827

     Dense  grid:    21175 G-vectors     FFT dimensions: (  18,  18, 150)

     Dynamical RAM for                 wfc:       0.01 MB

     Dynamical RAM for     wfc (w. buffer):       0.19 MB

     Dynamical RAM for           str. fact:       0.01 MB

     Dynamical RAM for           local pot:       0.00 MB

     Dynamical RAM for          nlocal pot:       0.03 MB

     Dynamical RAM for                qrad:       0.28 MB

     Dynamical RAM for          rho,v,vnew:       0.10 MB

     Dynamical RAM for               rhoin:       0.03 MB

     Dynamical RAM for            rho*nmix:       0.23 MB

     Dynamical RAM for           G-vectors:       0.06 MB

     Dynamical RAM for          h,s,v(r/c):       0.01 MB

     Dynamical RAM for          <psi|beta>:       0.00 MB

     Dynamical RAM for                 psi:       0.03 MB

     Dynamical RAM for                hpsi:       0.03 MB

     Dynamical RAM for                spsi:       0.03 MB

     Dynamical RAM for      wfcinit/wfcrot:       0.03 MB

     Dynamical RAM for           addusdens:       0.65 MB

     Dynamical RAM for          addusforce:       0.69 MB

     Dynamical RAM for         addusstress:       0.72 MB

     Estimated static dynamical RAM per process >       0.82 MB

     Estimated max dynamical RAM per process >       1.77 MB

     Estimated total dynamical RAM >      38.92 MB

     Check: negative core charge=   -0.000014

     Initial potential from superposition of free atoms

     starting charge       7.9999, renormalised to       8.0000

     negative rho (up, down):  4.753E-04 0.000E+00
     Starting wfcs are    8 randomized atomic wfcs
     Checking if some PAW data can be deallocated... 

     total cpu time spent up to now is        0.1 secs

     Self-consistent Calculation

     iteration #  1     ecut=    37.00 Ry     beta= 0.40
     Davidson diagonalization with overlap

---- Real-time Memory Report at c_bands before calling an iterative solver
            41 MiB given to the printing process from OS
             0 MiB allocation reported by mallinfo(arena+hblkhd)
        187673 MiB available memory on the node where the printing process lives
------------------
     ethr =  1.00E-02,  avg # of iterations =  8.2

     negative rho (up, down):  3.878E-05 0.000E+00

     total cpu time spent up to now is        0.3 secs

     total energy              =     -36.86669571 Ry
     estimated scf accuracy    <       0.12643995 Ry

     iteration #  2     ecut=    37.00 Ry     beta= 0.40
     Davidson diagonalization with overlap

---- Real-time Memory Report at c_bands before calling an iterative solver
            45 MiB given to the printing process from OS
             0 MiB allocation reported by mallinfo(arena+hblkhd)
        187653 MiB available memory on the node where the printing process lives
------------------
     ethr =  1.58E-03,  avg # of iterations =  3.8

     negative rho (up, down):  2.246E-04 0.000E+00

     total cpu time spent up to now is        0.3 secs

     total energy              =     -36.87074433 Ry
     estimated scf accuracy    <       0.05917831 Ry

     iteration #  3     ecut=    37.00 Ry     beta= 0.40
     Davidson diagonalization with overlap

---- Real-time Memory Report at c_bands before calling an iterative solver
            45 MiB given to the printing process from OS
             0 MiB allocation reported by mallinfo(arena+hblkhd)
        187648 MiB available memory on the node where the printing process lives
------------------
     c_bands:  1 eigenvalues not converged
     ethr =  7.40E-04,  avg # of iterations = 14.4

     negative rho (up, down):  5.898E-05 0.000E+00

     total cpu time spent up to now is        0.5 secs

     total energy              =     -36.88752399 Ry
     estimated scf accuracy    <       0.03418421 Ry

     iteration #  4     ecut=    37.00 Ry     beta= 0.40
     Davidson diagonalization with overlap

---- Real-time Memory Report at c_bands before calling an iterative solver
            45 MiB given to the printing process from OS
             0 MiB allocation reported by mallinfo(arena+hblkhd)
        187642 MiB available memory on the node where the printing process lives
------------------
     ethr =  4.27E-04,  avg # of iterations =  1.8

     negative rho (up, down):  1.532E-04 0.000E+00

     total cpu time spent up to now is        0.6 secs

     total energy              =     -36.88268946 Ry
     estimated scf accuracy    <       0.00999900 Ry

     iteration #  5     ecut=    37.00 Ry     beta= 0.40
     Davidson diagonalization with overlap

---- Real-time Memory Report at c_bands before calling an iterative solver
            45 MiB given to the printing process from OS
             0 MiB allocation reported by mallinfo(arena+hblkhd)
        187639 MiB available memory on the node where the printing process lives
------------------
     ethr =  1.25E-04,  avg # of iterations =  7.2

     negative rho (up, down):  1.477E-04 0.000E+00

     total cpu time spent up to now is        0.7 secs

     total energy              =     -36.88648018 Ry
     estimated scf accuracy    <       0.00071412 Ry

     iteration #  6     ecut=    37.00 Ry     beta= 0.40
     Davidson diagonalization with overlap

---- Real-time Memory Report at c_bands before calling an iterative solver
            45 MiB given to the printing process from OS
             0 MiB allocation reported by mallinfo(arena+hblkhd)
        187638 MiB available memory on the node where the printing process lives
------------------
     c_bands:  1 eigenvalues not converged
     c_bands:  1 eigenvalues not converged
     ethr =  8.93E-06,  avg # of iterations = 11.2

     negative rho (up, down):  1.376E-04 0.000E+00

     total cpu time spent up to now is        0.8 secs

     total energy              =     -36.88693640 Ry
     estimated scf accuracy    <       0.00023545 Ry

     iteration #  7     ecut=    37.00 Ry     beta= 0.40
     Davidson diagonalization with overlap

---- Real-time Memory Report at c_bands before calling an iterative solver
            45 MiB given to the printing process from OS
             0 MiB allocation reported by mallinfo(arena+hblkhd)
        187636 MiB available memory on the node where the printing process lives
------------------
     c_bands:  1 eigenvalues not converged
     c_bands:  1 eigenvalues not converged
     ethr =  2.94E-06,  avg # of iterations =  9.4

     negative rho (up, down):  1.240E-04 0.000E+00

     total cpu time spent up to now is        0.9 secs

     total energy              =     -36.88690946 Ry
     estimated scf accuracy    <       0.00009870 Ry

     iteration #  8     ecut=    37.00 Ry     beta= 0.40
     Davidson diagonalization with overlap

---- Real-time Memory Report at c_bands before calling an iterative solver
            45 MiB given to the printing process from OS
             0 MiB allocation reported by mallinfo(arena+hblkhd)
        187635 MiB available memory on the node where the printing process lives
------------------
     c_bands:  1 eigenvalues not converged
     c_bands:  1 eigenvalues not converged
     ethr =  1.23E-06,  avg # of iterations =  8.8

     negative rho (up, down):  1.236E-04 0.000E+00

     total cpu time spent up to now is        1.0 secs

     total energy              =     -36.88694113 Ry
     estimated scf accuracy    <       0.00000169 Ry

     iteration #  9     ecut=    37.00 Ry     beta= 0.40
     Davidson diagonalization with overlap

---- Real-time Memory Report at c_bands before calling an iterative solver
            46 MiB given to the printing process from OS
             0 MiB allocation reported by mallinfo(arena+hblkhd)
        187635 MiB available memory on the node where the printing process lives
------------------
     c_bands:  1 eigenvalues not converged
     ethr =  2.11E-08,  avg # of iterations =  7.3

     negative rho (up, down):  1.240E-04 0.000E+00

     total cpu time spent up to now is        1.1 secs

     total energy              =     -36.88695163 Ry
     estimated scf accuracy    <       0.00001898 Ry

     iteration # 10     ecut=    37.00 Ry     beta= 0.40
     Davidson diagonalization with overlap

---- Real-time Memory Report at c_bands before calling an iterative solver
            46 MiB given to the printing process from OS
             0 MiB allocation reported by mallinfo(arena+hblkhd)
        187634 MiB available memory on the node where the printing process lives
------------------
     ethr =  2.11E-08,  avg # of iterations =  1.4

     negative rho (up, down):  1.256E-04 0.000E+00

     total cpu time spent up to now is        1.2 secs

     total energy              =     -36.88694053 Ry
     estimated scf accuracy    <       0.00001935 Ry

     iteration # 11     ecut=    37.00 Ry     beta= 0.40
     Davidson diagonalization with overlap

---- Real-time Memory Report at c_bands before calling an iterative solver
            46 MiB given to the printing process from OS
             0 MiB allocation reported by mallinfo(arena+hblkhd)
        187634 MiB available memory on the node where the printing process lives
------------------
     ethr =  2.11E-08,  avg # of iterations =  4.1

     negative rho (up, down):  1.255E-04 0.000E+00

     total cpu time spent up to now is        1.3 secs

     total energy              =     -36.88694297 Ry
     estimated scf accuracy    <       0.00000032 Ry

     iteration # 12     ecut=    37.00 Ry     beta= 0.40
     Davidson diagonalization with overlap

---- Real-time Memory Report at c_bands before calling an iterative solver
            46 MiB given to the printing process from OS
             0 MiB allocation reported by mallinfo(arena+hblkhd)
        187633 MiB available memory on the node where the printing process lives
------------------
     ethr =  3.94E-09,  avg # of iterations =  1.5

     negative rho (up, down):  1.255E-04 0.000E+00

     total cpu time spent up to now is        1.4 secs

     total energy              =     -36.88694303 Ry
     estimated scf accuracy    <       0.00000038 Ry

     iteration # 13     ecut=    37.00 Ry     beta= 0.40
     Davidson diagonalization with overlap

---- Real-time Memory Report at c_bands before calling an iterative solver
            46 MiB given to the printing process from OS
             0 MiB allocation reported by mallinfo(arena+hblkhd)
        187633 MiB available memory on the node where the printing process lives
------------------
     ethr =  3.94E-09,  avg # of iterations =  1.0

     negative rho (up, down):  1.258E-04 0.000E+00

     total cpu time spent up to now is        1.4 secs

     total energy              =     -36.88694287 Ry
     estimated scf accuracy    <       0.00000045 Ry

     iteration # 14     ecut=    37.00 Ry     beta= 0.40
     Davidson diagonalization with overlap

---- Real-time Memory Report at c_bands before calling an iterative solver
            46 MiB given to the printing process from OS
             0 MiB allocation reported by mallinfo(arena+hblkhd)
        187634 MiB available memory on the node where the printing process lives
------------------
     ethr =  3.94E-09,  avg # of iterations =  1.0

     negative rho (up, down):  1.259E-04 0.000E+00

     total cpu time spent up to now is        1.5 secs

     total energy              =     -36.88694281 Ry
     estimated scf accuracy    <       0.00000018 Ry

     iteration # 15     ecut=    37.00 Ry     beta= 0.40
     Davidson diagonalization with overlap

---- Real-time Memory Report at c_bands before calling an iterative solver
            46 MiB given to the printing process from OS
             0 MiB allocation reported by mallinfo(arena+hblkhd)
        187634 MiB available memory on the node where the printing process lives
------------------
     ethr =  2.21E-09,  avg # of iterations =  2.0

     negative rho (up, down):  1.260E-04 0.000E+00

     total cpu time spent up to now is        1.6 secs

     total energy              =     -36.88694281 Ry
     estimated scf accuracy    <       0.00000004 Ry

     iteration # 16     ecut=    37.00 Ry     beta= 0.40
     Davidson diagonalization with overlap

---- Real-time Memory Report at c_bands before calling an iterative solver
            46 MiB given to the printing process from OS
             0 MiB allocation reported by mallinfo(arena+hblkhd)
        187634 MiB available memory on the node where the printing process lives
------------------
     ethr =  4.54E-10,  avg # of iterations =  3.1

     negative rho (up, down):  1.262E-04 0.000E+00

     total cpu time spent up to now is        1.7 secs

     total energy              =     -36.88694282 Ry
     estimated scf accuracy    <          8.9E-09 Ry

     iteration # 17     ecut=    37.00 Ry     beta= 0.40
     Davidson diagonalization with overlap

---- Real-time Memory Report at c_bands before calling an iterative solver
            46 MiB given to the printing process from OS
             0 MiB allocation reported by mallinfo(arena+hblkhd)
        187633 MiB available memory on the node where the printing process lives
------------------
     ethr =  1.12E-10,  avg # of iterations =  3.9

     negative rho (up, down):  1.262E-04 0.000E+00

     total cpu time spent up to now is        1.8 secs

     total energy              =     -36.88694283 Ry
     estimated scf accuracy    <          4.0E-09 Ry

     iteration # 18     ecut=    37.00 Ry     beta= 0.40
     Davidson diagonalization with overlap

---- Real-time Memory Report at c_bands before calling an iterative solver
            46 MiB given to the printing process from OS
             0 MiB allocation reported by mallinfo(arena+hblkhd)
        187634 MiB available memory on the node where the printing process lives
------------------
     ethr =  4.97E-11,  avg # of iterations =  1.3

     negative rho (up, down):  1.262E-04 0.000E+00

     total cpu time spent up to now is        1.8 secs

     total energy              =     -36.88694283 Ry
     estimated scf accuracy    <          1.4E-09 Ry

     iteration # 19     ecut=    37.00 Ry     beta= 0.40
     Davidson diagonalization with overlap

---- Real-time Memory Report at c_bands before calling an iterative solver
            46 MiB given to the printing process from OS
             0 MiB allocation reported by mallinfo(arena+hblkhd)
        187632 MiB available memory on the node where the printing process lives
------------------
     ethr =  1.80E-11,  avg # of iterations =  2.4

     negative rho (up, down):  1.262E-04 0.000E+00

     total cpu time spent up to now is        1.9 secs

     total energy              =     -36.88694283 Ry
     estimated scf accuracy    <          5.3E-10 Ry

     iteration # 20     ecut=    37.00 Ry     beta= 0.40
     Davidson diagonalization with overlap

---- Real-time Memory Report at c_bands before calling an iterative solver
            46 MiB given to the printing process from OS
             0 MiB allocation reported by mallinfo(arena+hblkhd)
        187633 MiB available memory on the node where the printing process lives
------------------
     ethr =  6.65E-12,  avg # of iterations =  2.4

     negative rho (up, down):  1.261E-04 0.000E+00

     total cpu time spent up to now is        2.0 secs

     total energy              =     -36.88694283 Ry
     estimated scf accuracy    <          1.5E-09 Ry

     iteration # 21     ecut=    37.00 Ry     beta= 0.40
     Davidson diagonalization with overlap

---- Real-time Memory Report at c_bands before calling an iterative solver
            46 MiB given to the printing process from OS
             0 MiB allocation reported by mallinfo(arena+hblkhd)
        187632 MiB available memory on the node where the printing process lives
------------------
     ethr =  6.65E-12,  avg # of iterations =  1.0

     negative rho (up, down):  1.262E-04 0.000E+00

     total cpu time spent up to now is        2.1 secs

     total energy              =     -36.88694283 Ry
     estimated scf accuracy    <          1.3E-09 Ry

     iteration # 22     ecut=    37.00 Ry     beta= 0.40
     Davidson diagonalization with overlap

---- Real-time Memory Report at c_bands before calling an iterative solver
            46 MiB given to the printing process from OS
             0 MiB allocation reported by mallinfo(arena+hblkhd)
        187633 MiB available memory on the node where the printing process lives
------------------
     ethr =  6.65E-12,  avg # of iterations =  1.1

     negative rho (up, down):  1.262E-04 0.000E+00

     total cpu time spent up to now is        2.1 secs

     total energy              =     -36.88694283 Ry
     estimated scf accuracy    <          6.7E-10 Ry

     iteration # 23     ecut=    37.00 Ry     beta= 0.40
     Davidson diagonalization with overlap

---- Real-time Memory Report at c_bands before calling an iterative solver
            47 MiB given to the printing process from OS
             0 MiB allocation reported by mallinfo(arena+hblkhd)
        187632 MiB available memory on the node where the printing process lives
------------------
     ethr =  6.65E-12,  avg # of iterations =  2.0

     negative rho (up, down):  1.261E-04 0.000E+00

     total cpu time spent up to now is        2.2 secs

     End of self-consistent calculation

          k = 0.0000 0.0000 0.0000 (  2707 PWs)   bands (ev):

   -21.9118  -9.9936  -5.3799  -5.3799   0.6395   1.1433   1.2392   2.3159

     occupation numbers 
     1.0000   1.0000   1.0000   1.0000   0.0000   0.0000   0.0000   0.0000

          k = 0.0000 0.1283 0.0000 (  2728 PWs)   bands (ev):

   -21.6194  -9.6439  -6.4975  -5.9554   1.0414   1.5495   1.6454   2.7194

     occupation numbers 
     1.0000   1.0000   1.0000   1.0000   0.0000   0.0000   0.0000   0.0000

          k = 0.0000 0.2566 0.0000 (  2718 PWs)   bands (ev):

   -20.7477  -9.0534  -8.6125  -7.1155   2.2459   2.7651   2.8639   3.9226

     occupation numbers 
     1.0000   1.0000   1.0000   1.0000   0.0000   0.0000   0.0000   0.0000

          k = 0.0000 0.3849 0.0000 (  2704 PWs)   bands (ev):

   -19.3178 -11.9926  -8.1402  -6.9801   2.6120   4.2428   4.8055   4.8898

     occupation numbers 
     1.0000   1.0000   1.0000   1.0000   0.0000   0.0000   0.0000   0.0000

          k = 0.0000 0.5132 0.0000 (  2670 PWs)   bands (ev):

   -17.4052 -14.7468  -8.7059  -5.1269  -0.1005   5.1523   7.0362   7.6220

     occupation numbers 
     1.0000   1.0000   1.0000   1.0000   0.0000   0.0000   0.0000   0.0000

          k = 0.1111 0.1925 0.0000 (  2735 PWs)   bands (ev):

   -21.0374  -8.9526  -8.0567  -7.1059   1.8451   2.3609   2.4579   3.5245

     occupation numbers 
     1.0000   1.0000   1.0000   1.0000   0.0000   0.0000   0.0000   0.0000

          k = 0.1111 0.3208 0.0000 (  2702 PWs)   bands (ev):

   -19.8864 -10.5132  -8.4946  -7.6110   3.4487   3.8438   4.0217   4.0827

     occupation numbers 
     1.0000   1.0000   1.0000   1.0000   0.0000   0.0000   0.0000   0.0000

          k = 0.1111 0.4491 0.0000 (  2678 PWs)   bands (ev):

   -18.2043 -13.2822  -9.3777  -5.7748   1.0140   5.8311   6.3995   6.4688

     occupation numbers 
     1.0000   1.0000   1.0000   1.0000   0.0000   0.0000   0.0000   0.0000

          k = 0.1111 0.5774 0.0000 (  2658 PWs)   bands (ev):

   -16.4521 -15.4363  -9.6783  -4.4310  -0.7207   6.3561   8.9067   9.0330

     occupation numbers 
     1.0000   1.0000   1.0000   1.0000   0.0000   0.0000   0.0000   0.0000

          k = 0.2222 0.3849 0.0000 (  2681 PWs)   bands (ev):

   -18.4808 -12.0307 -10.5177  -6.0219   1.6474   5.4425   5.9750   6.1125

     occupation numbers 
     1.0000   1.0000   1.0000   1.0000   0.0000   0.0000   0.0000   0.0000

          k = 0.2222 0.5132 0.0000 (  2666 PWs)   bands (ev):

   -16.6235 -14.1533 -11.5189  -4.1363  -0.6037   8.1738   8.4063   8.9425

     occupation numbers 
     1.0000   1.0000   1.0000   1.0000   0.0000   0.0000   0.0000   0.0000

          k = 0.3333 0.5774 0.0000 (  2652 PWs)   bands (ev):

   -14.9564 -14.9564 -12.9477  -2.3233  -2.3233   8.2796  10.5573  10.5575

     occupation numbers 
     1.0000   1.0000   1.0000   0.5000   0.5000   0.0000   0.0000   0.0000

     the Fermi energy is    -2.3044 ev

!    total energy              =     -36.88694283 Ry
     total all-electron energy =      -152.415146 Ry
     estimated scf accuracy    <          1.5E-10 Ry
     smearing contrib. (-TS)   =      -0.00016207 Ry
     internal energy E=F+TS    =     -36.88678076 Ry

     The total energy is F=E-TS. E is the sum of the following terms:
     one-electron contribution =    -224.86645920 Ry
     hartree contribution      =     113.86186724 Ry
     xc contribution           =      -8.29899403 Ry
     ewald contribution        =      95.72438430 Ry
     one-center paw contrib.   =     -13.30757908 Ry
      -> PAW hartree energy AE =      11.21590981 Ry
      -> PAW hartree energy PS =     -11.20099631 Ry
      -> PAW xc energy AE      =     -11.00832092 Ry
      -> PAW xc energy PS      =       4.33961789 Ry
      -> total E_H with PAW    =     113.87678074 Ry
      -> total E_XC with PAW   =     -14.96769706 Ry

     convergence has been achieved in  23 iterations

     negative rho (up, down):  1.261E-04 0.000E+00

     Forces acting on atoms (cartesian axes, Ry/au):

     atom    1 type  1   force =     0.00000000    0.00000000    0.00000000
     atom    2 type  1   force =     0.00000000   -0.00000000    0.00000000
     The non-local contrib.  to forces
     atom    1 type  1   force =    -0.00000000    0.00000000    0.00000000
     atom    2 type  1   force =     0.00000000   -0.00000000    0.00000000
     The ionic contribution  to forces
     atom    1 type  1   force =    -0.00000000   -0.00000000    0.00000000
     atom    2 type  1   force =    -0.00000000    0.00000000   -0.00000000
     The local contribution  to forces
     atom    1 type  1   force =     0.00000000    0.00000000   -0.00000000
     atom    2 type  1   force =    -0.00000000   -0.00000000   -0.00000000
     The core correction contribution to forces
     atom    1 type  1   force =    -0.00000000    0.00000000    0.00000000
     atom    2 type  1   force =     0.00000000   -0.00000000    0.00000000
     The Hubbard contrib.    to forces
     atom    1 type  1   force =     0.00000000    0.00000000    0.00000000
     atom    2 type  1   force =     0.00000000    0.00000000    0.00000000
     The SCF correction term to forces
     atom    1 type  1   force =    -0.00000000   -0.00000000   -0.00000000
     atom    2 type  1   force =     0.00000000    0.00000000   -0.00000000

     Total force =     0.000000     Total SCF correction =     0.000000


     Computing stress (Cartesian axis) and pressure


     negative rho (up, down):  1.261E-04 0.000E+00
          total   stress  (Ry/bohr**3)                   (kbar)     P=        2.62
   0.00003038   0.00000000   0.00000000            4.47        0.00        0.00
   0.00000000   0.00003038   0.00000000            0.00        4.47        0.00
   0.00000000   0.00000000  -0.00000731            0.00        0.00       -1.08

     kinetic stress (kbar)   1915.96     -0.00      0.00
                               -0.00   1915.96      0.00
                               -0.00      0.00   2183.75

     local   stress (kbar) -49629.06     -0.00     -0.00
                               -0.00 -49629.06      0.00
                               -0.00      0.00  49197.90

     nonloc. stress (kbar)    676.69     -0.00     -0.00
                               -0.00    676.69     -0.00
                               -0.00     -0.00    610.89

     hartree stress (kbar)  23508.20      0.00      0.00
                                0.00  23508.20     -0.00
                                0.00     -0.00 -23336.57

     exc-cor stress (kbar)   -223.72     -0.00     -0.00
                               -0.00   -223.72     -0.00
                               -0.00     -0.00   -244.56

     corecor stress (kbar)   -271.21      0.00      0.00
                                0.00   -271.21     -0.00
                                0.00     -0.00   -265.03

     ewald   stress (kbar)  24027.62     -0.00      0.00
                               -0.00  24027.62      0.00
                                0.00      0.00 -28147.45

     hubbard stress (kbar)      0.00      0.00      0.00
                                0.00      0.00      0.00
                                0.00      0.00      0.00

     DFT-D   stress (kbar)      0.00      0.00      0.00
                                0.00      0.00      0.00
                                0.00      0.00      0.00

     XDM     stress (kbar)      0.00      0.00      0.00
                                0.00      0.00      0.00
                                0.00      0.00      0.00

     dft-nl  stress (kbar)      0.00      0.00      0.00
                                0.00      0.00      0.00
                                0.00      0.00      0.00

     TS-vdW  stress (kbar)      0.00      0.00      0.00
                                0.00      0.00      0.00
                                0.00      0.00      0.00

     MDB     stress (kbar)      0.00      0.00      0.00
                                0.00      0.00      0.00
                                0.00      0.00      0.00

     3D-RISM stress (kbar)      0.00      0.00      0.00
                                0.00      0.00      0.00
                                0.00      0.00      0.00


     Writing all to output data dir ./out/graphene.save/ :
     XML data file, charge density, pseudopotentials, collected wavefunctions
 
     init_run     :      0.05s CPU      0.07s WALL (       1 calls)
     electrons    :      1.42s CPU      2.08s WALL (       1 calls)
     forces       :      0.00s CPU      0.00s WALL (       1 calls)
     stress       :      0.01s CPU      0.01s WALL (       1 calls)

     Called by init_run:
     wfcinit      :      0.02s CPU      0.03s WALL (       1 calls)
     wfcinit:atom :      0.00s CPU      0.00s WALL (      12 calls)
     wfcinit:wfcr :      0.02s CPU      0.02s WALL (      12 calls)
     potinit      :      0.01s CPU      0.02s WALL (       1 calls)
     hinit0       :      0.01s CPU      0.02s WALL (       1 calls)

     Called by electrons:
     c_bands      :      1.02s CPU      1.50s WALL (      23 calls)
     sum_band     :      0.15s CPU      0.16s WALL (      23 calls)
     v_of_rho     :      0.03s CPU      0.03s WALL (      24 calls)
     v_h          :      0.00s CPU      0.00s WALL (      24 calls)
     v_xc         :      0.03s CPU      0.03s WALL (      26 calls)
     newd         :      0.02s CPU      0.02s WALL (      24 calls)
     PAW_pot      :      0.19s CPU      0.31s WALL (      24 calls)
     mix_rho      :      0.01s CPU      0.01s WALL (      23 calls)

     Called by c_bands:
     init_us_2    :      0.01s CPU      0.01s WALL (     588 calls)
     cegterg      :      0.96s CPU      1.05s WALL (     276 calls)

     Called by sum_band:
     sum_band:wei :      0.00s CPU      0.00s WALL (      23 calls)
     sum_band:loo :      0.13s CPU      0.14s WALL (      23 calls)
     sum_band:buf :      0.00s CPU      0.00s WALL (     276 calls)
     sum_band:ini :      0.01s CPU      0.01s WALL (     276 calls)
     sum_band:cal :      0.01s CPU      0.01s WALL (     276 calls)
     sum_band:bec :      0.00s CPU      0.00s WALL (     276 calls)
     addusdens    :      0.01s CPU      0.01s WALL (      23 calls)
                                        0.00s GPU  (      23 calls)
     addusd:skk   :      0.00s CPU      0.00s WALL (      23 calls)
                                        0.00s GPU  (      23 calls)

     Called by *egterg:
     cdiaghg      :      0.13s CPU      0.14s WALL (    1481 calls)
     cegterg:over :      0.05s CPU      0.05s WALL (    1205 calls)
     cegterg:upda :      0.01s CPU      0.01s WALL (    1205 calls)
     cegterg:last :      0.01s CPU      0.01s WALL (     693 calls)
     h_psi        :      0.70s CPU      0.78s WALL (    1493 calls)
     s_psi        :      0.01s CPU      0.01s WALL (    1493 calls)
     g_psi        :      0.00s CPU      0.00s WALL (    1205 calls)

     Called by h_psi:
     h_psi:calbec :      0.04s CPU      0.05s WALL (    1493 calls)
     vloc_psi     :      0.64s CPU      0.70s WALL (    1493 calls)
     add_vuspsi   :      0.01s CPU      0.01s WALL (    1493 calls)

     General routines
     calbec       :      0.05s CPU      0.05s WALL (    1829 calls)
     fft          :      0.02s CPU      0.02s WALL (     289 calls)
     ffts         :      0.00s CPU      0.00s WALL (      23 calls)
     fftw         :      0.68s CPU      0.75s WALL (   15754 calls)
 
     Parallel routines

     PAW routines
     PAW_pot      :      0.19s CPU      0.31s WALL (      24 calls)
     PAW_symme    :      0.00s CPU      0.00s WALL (      47 calls)
 
     PWSCF        :      1.55s CPU      2.36s WALL

 
   This run was terminated on:   5: 3:56  26Jun2024            

=------------------------------------------------------------------------------=
   JOB DONE.
=------------------------------------------------------------------------------=
