
     Program PROJWFC v.7.3.1 starts on 26Jun2024 at  5: 6: 0 

     This program is part of the open-source Quantum ESPRESSO suite
     for quantum simulation of materials; please cite
         "P. Giannozzi et al., J. Phys.:Condens. Matter 21 395502 (2009);
         "P. Giannozzi et al., J. Phys.:Condens. Matter 29 465901 (2017);
         "P. Giannozzi et al., J. Chem. Phys. 152 154105 (2020);
          URL http://www.quantum-espresso.org", 
     in publications or presentations arising from this work. More details at
     http://www.quantum-espresso.org/quote

     Parallel version (MPI), running on    22 processors

     MPI processes distributed on     1 nodes
     R & G space division:  proc/nbgrp/npool/nimage =      22
     186689 MiB available memory on the printing compute node when the environment starts
 

     Reading xml data from directory:

     ./out/graphene.save/
     file C.pbe-n-kjpaw_psl.0.1.UPF: wavefunction(s)  2P renormalized

     IMPORTANT: XC functional enforced from input :
     Exchange-correlation= PBE
                           (   1   4   3   4   0   0   0)
     Any further DFT definition will be discarded
     Please, verify this is what you really want

 
     Parallelization info
     --------------------
     sticks:   dense  smooth     PW     G-vecs:    dense   smooth      PW
     Min           9       9      3                  941      941     177
     Max          10      10      4                  988      988     196
     Sum         211     211     73                21175    21175    4021
 
     Using Slab Decomposition
 

     Check: negative core charge=   -0.000014

     negative rho (up, down):  1.261E-04 0.000E+00

     Gaussian broadening (read from file): ngauss,degauss=  -1    0.010000


     Calling projwave .... 
     Subspace diagonalization in iterative solution of the eigenvalue problem:
     a serial algorithm will be used

 
  Problem Sizes 
  natomwfc =            8
  nbnd     =           60
  nkstot   =          274
  npwx     =          129
  nkb      =           16
 

     Atomic states used for projection
     (read from pseudopotential files):

     state #   1: atom   1 (C  ), wfc  1 (l=0 m= 1)
     state #   2: atom   1 (C  ), wfc  2 (l=1 m= 1)
     state #   3: atom   1 (C  ), wfc  2 (l=1 m= 2)
     state #   4: atom   1 (C  ), wfc  2 (l=1 m= 3)
     state #   5: atom   2 (C  ), wfc  1 (l=0 m= 1)
     state #   6: atom   2 (C  ), wfc  2 (l=1 m= 1)
     state #   7: atom   2 (C  ), wfc  2 (l=1 m= 2)
     state #   8: atom   2 (C  ), wfc  2 (l=1 m= 3)

 k =   0.0000000000  0.0000000000  0.0000000000
==== e(   1) =   -21.91161 eV ==== 
     psi = 0.492*[#   1]+0.492*[#   5]
    |psi|^2 = 0.983
==== e(   2) =    -9.99344 eV ==== 
     psi = 0.473*[#   2]+0.473*[#   6]
    |psi|^2 = 0.945
==== e(   3) =    -5.37968 eV ==== 
     psi = 0.498*[#   4]+0.498*[#   8]
    |psi|^2 = 0.997
==== e(   4) =    -5.37968 eV ==== 
     psi = 0.498*[#   3]+0.498*[#   7]
    |psi|^2 = 0.997
==== e(   5) =     0.63953 eV ==== 
     psi = 0.002*[#   1]+0.002*[#   5]
    |psi|^2 = 0.005
==== e(   6) =     1.14329 eV ==== 
     psi = 0.006*[#   2]+0.006*[#   6]
    |psi|^2 = 0.012
==== e(   7) =     1.23920 eV ==== 
 
    |psi|^2 = 0.002
==== e(   8) =     2.31585 eV ==== 
     psi = 0.008*[#   2]+0.008*[#   6]
    |psi|^2 = 0.016
==== e(   9) =     2.68438 eV ==== 
     psi = 0.001*[#   1]+0.001*[#   5]
    |psi|^2 = 0.002
==== e(  10) =     4.41656 eV ==== 
     psi = 0.006*[#   2]+0.006*[#   6]
    |psi|^2 = 0.012
==== e(  11) =     5.04791 eV ==== 
     psi = 0.001*[#   1]+0.001*[#   5]
    |psi|^2 = 0.002
==== e(  12) =     6.03215 eV ==== 
     psi = 0.470*[#   3]+0.470*[#   7]
    |psi|^2 = 0.940
==== e(  13) =     6.03215 eV ==== 
     psi = 0.470*[#   4]+0.470*[#   8]
    |psi|^2 = 0.940
==== e(  14) =     7.39765 eV ==== 
     psi = 0.003*[#   2]+0.003*[#   6]
    |psi|^2 = 0.007
==== e(  15) =     8.21510 eV ==== 
 
    |psi|^2 = 0.002
==== e(  16) =     9.18998 eV ==== 
     psi = 0.497*[#   2]+0.497*[#   6]
    |psi|^2 = 0.994
==== e(  17) =    10.33910 eV ==== 
     psi = 0.488*[#   1]+0.488*[#   5]
    |psi|^2 = 0.976
==== e(  18) =    11.16796 eV ==== 
     psi = 0.002*[#   2]+0.002*[#   6]
    |psi|^2 = 0.003
==== e(  19) =    12.16492 eV ==== 
 
    |psi|^2 = 0.001
==== e(  20) =    15.66491 eV ==== 
 
    |psi|^2 = 0.002
==== e(  21) =    16.91566 eV ==== 
 
    |psi|^2 = 0.001
==== e(  22) =    20.25620 eV ==== 
 
    |psi|^2 = 0.001
==== e(  23) =    20.82828 eV ==== 
 
    |psi|^2 = 0.001
==== e(  24) =    22.44663 eV ==== 
 
    |psi|^2 = 0.000
==== e(  25) =    25.94892 eV ==== 
 
    |psi|^2 = 0.000
==== e(  26) =    25.94892 eV ==== 
 
    |psi|^2 = 0.000
==== e(  27) =    26.31393 eV ==== 
 
    |psi|^2 = 0.000
==== e(  28) =    28.74147 eV ==== 
 
    |psi|^2 = 0.000
==== e(  29) =    29.37716 eV ==== 
 
    |psi|^2 = 0.000
==== e(  30) =    29.37716 eV ==== 
 
    |psi|^2 = 0.000
==== e(  31) =    30.42481 eV ==== 
 
    |psi|^2 = 0.000
==== e(  32) =    32.92792 eV ==== 
 
    |psi|^2 = 0.000
==== e(  33) =    32.92792 eV ==== 
 
    |psi|^2 = 0.000
==== e(  34) =    33.38392 eV ==== 
     psi = 0.003*[#   3]+0.003*[#   7]
    |psi|^2 = 0.005
==== e(  35) =    33.38392 eV ==== 
     psi = 0.003*[#   4]+0.003*[#   8]
    |psi|^2 = 0.005
==== e(  36) =    33.78022 eV ==== 
     psi = 0.002*[#   1]+0.002*[#   5]
    |psi|^2 = 0.004
==== e(  37) =    33.94822 eV ==== 
 
    |psi|^2 = 0.001
==== e(  38) =    34.01024 eV ==== 
 
    |psi|^2 = 0.000
==== e(  39) =    34.09670 eV ==== 
 
    |psi|^2 = 0.000
==== e(  40) =    34.26819 eV ==== 
 
    |psi|^2 = 0.000
==== e(  41) =    34.26819 eV ==== 
 
    |psi|^2 = 0.000
==== e(  42) =    34.28323 eV ==== 
 
    |psi|^2 = 0.001
==== e(  43) =    34.28323 eV ==== 
 
    |psi|^2 = 0.001
==== e(  44) =    34.37828 eV ==== 
 
    |psi|^2 = 0.000
==== e(  45) =    34.37828 eV ==== 
 
    |psi|^2 = 0.000
==== e(  46) =    34.38868 eV ==== 
 
    |psi|^2 = 0.002
==== e(  47) =    34.48169 eV ==== 
 
    |psi|^2 = 0.000
==== e(  48) =    34.48169 eV ==== 
 
    |psi|^2 = 0.000
==== e(  49) =    34.56348 eV ==== 
 
    |psi|^2 = 0.000
==== e(  50) =    34.80605 eV ==== 
 
    |psi|^2 = 0.000
==== e(  51) =    35.07937 eV ==== 
 
    |psi|^2 = 0.001
==== e(  52) =    35.51610 eV ==== 
 
    |psi|^2 = 0.000
==== e(  53) =    35.51610 eV ==== 
 
    |psi|^2 = 0.000
==== e(  54) =    35.60784 eV ==== 
     psi = 0.001*[#   3]+0.001*[#   7]
    |psi|^2 = 0.002
==== e(  55) =    35.60784 eV ==== 
     psi = 0.001*[#   4]+0.001*[#   8]
    |psi|^2 = 0.002
==== e(  56) =    35.65943 eV ==== 
 
    |psi|^2 = 0.000
==== e(  57) =    35.65943 eV ==== 
 
    |psi|^2 = 0.000
==== e(  58) =    35.73859 eV ==== 
 
    |psi|^2 = 0.000
==== e(  59) =    35.82654 eV ==== 
     psi = 0.001*[#   1]+0.001*[#   5]
    |psi|^2 = 0.003
==== e(  60) =    35.87517 eV ==== 
 
    |psi|^2 = 0.000

 k =   0.0050000000  0.0028867513  0.0000000000
==== e(   1) =   -21.91101 eV ==== 
     psi = 0.492*[#   1]+0.492*[#   5]
    |psi|^2 = 0.983
==== e(   2) =    -9.99273 eV ==== 
     psi = 0.473*[#   2]+0.473*[#   6]
    |psi|^2 = 0.945
==== e(   3) =    -5.38220 eV ==== 
     psi = 0.374*[#   3]+0.374*[#   7]+0.125*[#   4]+0.125*[#   8]
    |psi|^2 = 0.997
==== e(   4) =    -5.38101 eV ==== 
     psi = 0.374*[#   4]+0.374*[#   8]+0.125*[#   3]+0.125*[#   7]
    |psi|^2 = 0.997
==== e(   5) =     0.64034 eV ==== 
     psi = 0.002*[#   1]+0.002*[#   5]
    |psi|^2 = 0.005
==== e(   6) =     1.14411 eV ==== 
     psi = 0.006*[#   2]+0.006*[#   6]
    |psi|^2 = 0.012
==== e(   7) =     1.24002 eV ==== 
 
    |psi|^2 = 0.002
==== e(   8) =     2.31666 eV ==== 
     psi = 0.008*[#   2]+0.008*[#   6]
    |psi|^2 = 0.016
==== e(   9) =     2.68519 eV ==== 
     psi = 0.001*[#   1]+0.001*[#   5]
    |psi|^2 = 0.002
==== e(  10) =     4.41737 eV ==== 
     psi = 0.006*[#   2]+0.006*[#   6]
    |psi|^2 = 0.012
==== e(  11) =     5.04871 eV ==== 
     psi = 0.001*[#   1]+0.001*[#   5]
    |psi|^2 = 0.002
==== e(  12) =     6.03254 eV ==== 
     psi = 0.352*[#   3]+0.352*[#   7]+0.117*[#   4]+0.117*[#   8]
    |psi|^2 = 0.940
==== e(  13) =     6.03473 eV ==== 
     psi = 0.353*[#   4]+0.353*[#   8]+0.118*[#   3]+0.118*[#   7]
    |psi|^2 = 0.940
==== e(  14) =     7.39845 eV ==== 
     psi = 0.003*[#   2]+0.003*[#   6]
    |psi|^2 = 0.007
==== e(  15) =     8.21592 eV ==== 
 
    |psi|^2 = 0.002
==== e(  16) =     9.18784 eV ==== 
     psi = 0.497*[#   2]+0.497*[#   6]
    |psi|^2 = 0.994
==== e(  17) =    10.34010 eV ==== 
     psi = 0.488*[#   1]+0.488*[#   5]
    |psi|^2 = 0.976
==== e(  18) =    11.16874 eV ==== 
     psi = 0.002*[#   2]+0.002*[#   6]
    |psi|^2 = 0.003
==== e(  19) =    12.16573 eV ==== 
 
    |psi|^2 = 0.001
==== e(  20) =    15.66562 eV ==== 
 
    |psi|^2 = 0.002
==== e(  21) =    16.91647 eV ==== 
 
    |psi|^2 = 0.001
==== e(  22) =    20.25817 eV ==== 
 
    |psi|^2 = 0.001
==== e(  23) =    20.82877 eV ==== 
 
    |psi|^2 = 0.001
==== e(  24) =    22.44741 eV ==== 
 
    |psi|^2 = 0.000
==== e(  25) =    25.94197 eV ==== 
 
    |psi|^2 = 0.000
==== e(  26) =    25.94331 eV ==== 
 
    |psi|^2 = 0.000
==== e(  27) =    26.31163 eV ==== 
 
    |psi|^2 = 0.000
==== e(  28) =    28.74224 eV ==== 
 
    |psi|^2 = 0.000
==== e(  29) =    29.36026 eV ==== 
 
    |psi|^2 = 0.000
==== e(  30) =    29.38552 eV ==== 
 
    |psi|^2 = 0.000
==== e(  31) =    30.45283 eV ==== 
 
    |psi|^2 = 0.000
==== e(  32) =    32.83289 eV ==== 
 
    |psi|^2 = 0.001
==== e(  33) =    32.87807 eV ==== 
 
    |psi|^2 = 0.001
==== e(  34) =    33.37395 eV ==== 
     psi = 0.002*[#   3]+0.002*[#   7]
    |psi|^2 = 0.004
==== e(  35) =    33.43437 eV ==== 
     psi = 0.002*[#   4]+0.002*[#   8]
    |psi|^2 = 0.005
==== e(  36) =    33.79394 eV ==== 
     psi = 0.001*[#   1]+0.001*[#   5]
    |psi|^2 = 0.003
==== e(  37) =    33.85537 eV ==== 
 
    |psi|^2 = 0.001
==== e(  38) =    33.94099 eV ==== 
 
    |psi|^2 = 0.001
==== e(  39) =    34.02597 eV ==== 
 
    |psi|^2 = 0.000
==== e(  40) =    34.09800 eV ==== 
 
    |psi|^2 = 0.001
==== e(  41) =    34.11279 eV ==== 
 
    |psi|^2 = 0.000
==== e(  42) =    34.25884 eV ==== 
 
    |psi|^2 = 0.000
==== e(  43) =    34.31966 eV ==== 
 
    |psi|^2 = 0.001
==== e(  44) =    34.33507 eV ==== 
 
    |psi|^2 = 0.000
==== e(  45) =    34.44079 eV ==== 
 
    |psi|^2 = 0.000
==== e(  46) =    34.55693 eV ==== 
 
    |psi|^2 = 0.001
==== e(  47) =    34.58154 eV ==== 
 
    |psi|^2 = 0.000
==== e(  48) =    34.60223 eV ==== 
 
    |psi|^2 = 0.000
==== e(  49) =    34.67564 eV ==== 
 
    |psi|^2 = 0.000
==== e(  50) =    34.88365 eV ==== 
 
    |psi|^2 = 0.000
==== e(  51) =    35.03725 eV ==== 
 
    |psi|^2 = 0.000
==== e(  52) =    35.32181 eV ==== 
 
    |psi|^2 = 0.001
==== e(  53) =    35.39351 eV ==== 
 
    |psi|^2 = 0.001
==== e(  54) =    35.57371 eV ==== 
 
    |psi|^2 = 0.000
==== e(  55) =    35.60290 eV ==== 
 
    |psi|^2 = 0.000
==== e(  56) =    35.61313 eV ==== 
 
    |psi|^2 = 0.001
==== e(  57) =    35.73229 eV ==== 
 
    |psi|^2 = 0.001
==== e(  58) =    35.75347 eV ==== 
 
    |psi|^2 = 0.000
==== e(  59) =    35.87711 eV ==== 
 
    |psi|^2 = 0.000
==== e(  60) =    35.95067 eV ==== 
 
    |psi|^2 = 0.002

 k =   0.0100000000  0.0057735027  0.0000000000
==== e(   1) =   -21.90923 eV ==== 
     psi = 0.491*[#   1]+0.491*[#   5]
    |psi|^2 = 0.983
==== e(   2) =    -9.99060 eV ==== 
     psi = 0.473*[#   2]+0.473*[#   6]
    |psi|^2 = 0.945
==== e(   3) =    -5.38967 eV ==== 
     psi = 0.374*[#   3]+0.374*[#   7]+0.125*[#   4]+0.125*[#   8]
    |psi|^2 = 0.997
==== e(   4) =    -5.38497 eV ==== 
     psi = 0.374*[#   4]+0.374*[#   8]+0.125*[#   3]+0.125*[#   7]
    |psi|^2 = 0.997
==== e(   5) =     0.64278 eV ==== 
     psi = 0.002*[#   1]+0.002*[#   5]
    |psi|^2 = 0.005
==== e(   6) =     1.14658 eV ==== 
     psi = 0.006*[#   2]+0.006*[#   6]
    |psi|^2 = 0.012
==== e(   7) =     1.24249 eV ==== 
 
    |psi|^2 = 0.002
==== e(   8) =     2.31911 eV ==== 
     psi = 0.008*[#   2]+0.008*[#   6]
    |psi|^2 = 0.016
==== e(   9) =     2.68764 eV ==== 
     psi = 0.001*[#   1]+0.001*[#   5]
    |psi|^2 = 0.002
==== e(  10) =     4.41980 eV ==== 
     psi = 0.006*[#   2]+0.006*[#   6]
    |psi|^2 = 0.012
==== e(  11) =     5.05109 eV ==== 
     psi = 0.001*[#   1]+0.001*[#   5]
    |psi|^2 = 0.002
==== e(  12) =     6.03372 eV ==== 
     psi = 0.352*[#   3]+0.352*[#   7]+0.117*[#   4]+0.117*[#   8]
    |psi|^2 = 0.940
==== e(  13) =     6.04254 eV ==== 
     psi = 0.353*[#   4]+0.353*[#   8]+0.118*[#   3]+0.118*[#   7]
    |psi|^2 = 0.940
==== e(  14) =     7.40084 eV ==== 
     psi = 0.003*[#   2]+0.003*[#   6]
    |psi|^2 = 0.007
==== e(  15) =     8.21840 eV ==== 
 
    |psi|^2 = 0.002
==== e(  16) =     9.18149 eV ==== 
     psi = 0.497*[#   2]+0.497*[#   6]
    |psi|^2 = 0.994
==== e(  17) =    10.34315 eV ==== 
     psi = 0.488*[#   1]+0.488*[#   5]
    |psi|^2 = 0.976
==== e(  18) =    11.17107 eV ==== 
     psi = 0.002*[#   2]+0.002*[#   6]
    |psi|^2 = 0.003
==== e(  19) =    12.16817 eV ==== 
 
    |psi|^2 = 0.001
==== e(  20) =    15.66778 eV ==== 
 
    |psi|^2 = 0.002
==== e(  21) =    16.91889 eV ==== 
 
    |psi|^2 = 0.001
==== e(  22) =    20.26408 eV ==== 
 
    |psi|^2 = 0.001
==== e(  23) =    20.83023 eV ==== 
 
    |psi|^2 = 0.001
==== e(  24) =    22.44977 eV ==== 
 
    |psi|^2 = 0.000
==== e(  25) =    25.92130 eV ==== 
 
    |psi|^2 = 0.000
==== e(  26) =    25.92611 eV ==== 
 
    |psi|^2 = 0.000
==== e(  27) =    26.30553 eV ==== 
 
    |psi|^2 = 0.000
==== e(  28) =    28.74454 eV ==== 
 
    |psi|^2 = 0.000
==== e(  29) =    29.31494 eV ==== 
 
    |psi|^2 = 0.000
==== e(  30) =    29.41042 eV ==== 
 
    |psi|^2 = 0.000
==== e(  31) =    30.53137 eV ==== 
 
    |psi|^2 = 0.000
==== e(  32) =    32.62043 eV ==== 
 
    |psi|^2 = 0.002
==== e(  33) =    32.76564 eV ==== 
 
    |psi|^2 = 0.001
==== e(  34) =    33.30637 eV ==== 
     psi = 0.001*[#   3]+0.001*[#   7]
    |psi|^2 = 0.003
==== e(  35) =    33.54739 eV ==== 
     psi = 0.002*[#   4]+0.002*[#   8]
    |psi|^2 = 0.004
==== e(  36) =    33.60660 eV ==== 
 
    |psi|^2 = 0.001
==== e(  37) =    33.62635 eV ==== 
 
    |psi|^2 = 0.000
==== e(  38) =    33.88593 eV ==== 
 
    |psi|^2 = 0.000
==== e(  39) =    33.90532 eV ==== 
 
    |psi|^2 = 0.001
==== e(  40) =    33.95393 eV ==== 
 
    |psi|^2 = 0.001
==== e(  41) =    34.06104 eV ==== 
     psi = 0.002*[#   1]+0.002*[#   5]
    |psi|^2 = 0.003
==== e(  42) =    34.10098 eV ==== 
 
    |psi|^2 = 0.000
==== e(  43) =    34.33512 eV ==== 
 
    |psi|^2 = 0.000
==== e(  44) =    34.39540 eV ==== 
 
    |psi|^2 = 0.001
==== e(  45) =    34.60715 eV ==== 
 
    |psi|^2 = 0.000
==== e(  46) =    34.62762 eV ==== 
 
    |psi|^2 = 0.000
==== e(  47) =    34.67639 eV ==== 
 
    |psi|^2 = 0.001
==== e(  48) =    34.76287 eV ==== 
 
    |psi|^2 = 0.000
==== e(  49) =    34.91353 eV ==== 
 
    |psi|^2 = 0.000
==== e(  50) =    34.95616 eV ==== 
 
    |psi|^2 = 0.000
==== e(  51) =    35.07914 eV ==== 
 
    |psi|^2 = 0.001
==== e(  52) =    35.13449 eV ==== 
 
    |psi|^2 = 0.000
==== e(  53) =    35.23671 eV ==== 
 
    |psi|^2 = 0.001
==== e(  54) =    35.43071 eV ==== 
 
    |psi|^2 = 0.000
==== e(  55) =    35.48845 eV ==== 
 
    |psi|^2 = 0.000
==== e(  56) =    35.53926 eV ==== 
 
    |psi|^2 = 0.001
==== e(  57) =    35.76631 eV ==== 
 
    |psi|^2 = 0.000
==== e(  58) =    35.89486 eV ==== 
 
    |psi|^2 = 0.001
==== e(  59) =    35.94248 eV ==== 
 
    |psi|^2 = 0.000
==== e(  60) =    36.11175 eV ==== 
 
    |psi|^2 = 0.000

 k =   0.0150000000  0.0086602540  0.0000000000
==== e(   1) =   -21.90627 eV ==== 
     psi = 0.491*[#   1]+0.491*[#   5]
    |psi|^2 = 0.983
==== e(   2) =    -9.98705 eV ==== 
     psi = 0.473*[#   2]+0.473*[#   6]
    |psi|^2 = 0.945
==== e(   3) =    -5.40201 eV ==== 
     psi = 0.373*[#   3]+0.373*[#   7]+0.124*[#   4]+0.124*[#   8]
    |psi|^2 = 0.997
==== e(   4) =    -5.39156 eV ==== 
     psi = 0.374*[#   4]+0.374*[#   8]+0.125*[#   3]+0.125*[#   7]
    |psi|^2 = 0.997
==== e(   5) =     0.64685 eV ==== 
     psi = 0.002*[#   1]+0.002*[#   5]
    |psi|^2 = 0.005
==== e(   6) =     1.15069 eV ==== 
     psi = 0.006*[#   2]+0.006*[#   6]
    |psi|^2 = 0.012
==== e(   7) =     1.24660 eV ==== 
 
    |psi|^2 = 0.002
==== e(   8) =     2.32320 eV ==== 
     psi = 0.008*[#   2]+0.008*[#   6]
    |psi|^2 = 0.016
==== e(   9) =     2.69172 eV ==== 
     psi = 0.001*[#   1]+0.001*[#   5]
    |psi|^2 = 0.002
==== e(  10) =     4.42385 eV ==== 
     psi = 0.006*[#   2]+0.006*[#   6]
    |psi|^2 = 0.012
==== e(  11) =     5.05507 eV ==== 
     psi = 0.001*[#   1]+0.001*[#   5]
    |psi|^2 = 0.002
==== e(  12) =     6.03559 eV ==== 
     psi = 0.351*[#   3]+0.351*[#   7]+0.117*[#   4]+0.117*[#   8]+0.001*[#   1]
          +0.001*[#   5]
    |psi|^2 = 0.939
==== e(  13) =     6.05556 eV ==== 
     psi = 0.353*[#   4]+0.353*[#   8]+0.118*[#   3]+0.118*[#   7]
    |psi|^2 = 0.940
==== e(  14) =     7.40484 eV ==== 
     psi = 0.003*[#   2]+0.003*[#   6]
    |psi|^2 = 0.007
==== e(  15) =     8.22252 eV ==== 
 
    |psi|^2 = 0.002
==== e(  16) =     9.17095 eV ==== 
     psi = 0.497*[#   2]+0.497*[#   6]
    |psi|^2 = 0.993
==== e(  17) =    10.34826 eV ==== 
     psi = 0.488*[#   1]+0.488*[#   5]
    |psi|^2 = 0.976
==== e(  18) =    11.17494 eV ==== 
     psi = 0.002*[#   2]+0.002*[#   6]
    |psi|^2 = 0.003
==== e(  19) =    12.17224 eV ==== 
 
    |psi|^2 = 0.001
==== e(  20) =    15.67137 eV ==== 
 
    |psi|^2 = 0.002
==== e(  21) =    16.92293 eV ==== 
 
    |psi|^2 = 0.001
==== e(  22) =    20.27391 eV ==== 
 
    |psi|^2 = 0.001
==== e(  23) =    20.83265 eV ==== 
 
    |psi|^2 = 0.001
==== e(  24) =    22.45370 eV ==== 
 
    |psi|^2 = 0.000
==== e(  25) =    25.88760 eV ==== 
 
    |psi|^2 = 0.000
==== e(  26) =    25.89552 eV ==== 
 
    |psi|^2 = 0.000
==== e(  27) =    26.29779 eV ==== 
 
    |psi|^2 = 0.000
==== e(  28) =    28.74837 eV ==== 
 
    |psi|^2 = 0.000
==== e(  29) =    29.25253 eV ==== 
 
    |psi|^2 = 0.000
==== e(  30) =    29.45122 eV ==== 
 
    |psi|^2 = 0.000
==== e(  31) =    30.64847 eV ==== 
 
    |psi|^2 = 0.000
==== e(  32) =    32.36307 eV ==== 
 
    |psi|^2 = 0.002
==== e(  33) =    32.63035 eV ==== 
 
    |psi|^2 = 0.002
==== e(  34) =    33.17618 eV ==== 
 
    |psi|^2 = 0.002
==== e(  35) =    33.32529 eV ==== 
 
    |psi|^2 = 0.001
==== e(  36) =    33.34147 eV ==== 
 
    |psi|^2 = 0.000
==== e(  37) =    33.66786 eV ==== 
 
    |psi|^2 = 0.003
==== e(  38) =    33.74142 eV ==== 
 
    |psi|^2 = 0.000
==== e(  39) =    33.81424 eV ==== 
 
    |psi|^2 = 0.002
==== e(  40) =    33.81464 eV ==== 
 
    |psi|^2 = 0.001
==== e(  41) =    33.94209 eV ==== 
 
    |psi|^2 = 0.000
==== e(  42) =    34.13384 eV ==== 
     psi = 0.001*[#   1]+0.001*[#   5]
    |psi|^2 = 0.003
==== e(  43) =    34.28797 eV ==== 
 
    |psi|^2 = 0.000
==== e(  44) =    34.53662 eV ==== 
 
    |psi|^2 = 0.002
==== e(  45) =    34.58005 eV ==== 
 
    |psi|^2 = 0.000
==== e(  46) =    34.68012 eV ==== 
 
    |psi|^2 = 0.001
==== e(  47) =    34.77368 eV ==== 
 
    |psi|^2 = 0.000
==== e(  48) =    34.86568 eV ==== 
 
    |psi|^2 = 0.000
==== e(  49) =    34.92263 eV ==== 
 
    |psi|^2 = 0.000
==== e(  50) =    34.96815 eV ==== 
 
    |psi|^2 = 0.001
==== e(  51) =    35.08152 eV ==== 
 
    |psi|^2 = 0.001
==== e(  52) =    35.23432 eV ==== 
 
    |psi|^2 = 0.000
==== e(  53) =    35.28484 eV ==== 
 
    |psi|^2 = 0.000
==== e(  54) =    35.39820 eV ==== 
 
    |psi|^2 = 0.000
==== e(  55) =    35.41063 eV ==== 
 
    |psi|^2 = 0.000
==== e(  56) =    35.49594 eV ==== 
 
    |psi|^2 = 0.001
==== e(  57) =    35.77609 eV ==== 
 
    |psi|^2 = 0.000
==== e(  58) =    36.03872 eV ==== 
 
    |psi|^2 = 0.000
==== e(  59) =    36.06107 eV ==== 
 
    |psi|^2 = 0.001
==== e(  60) =    36.26469 eV ==== 
 
    |psi|^2 = 0.001

 k =   0.0200000000  0.0115470054  0.0000000000
==== e(   1) =   -21.90213 eV ==== 
     psi = 0.490*[#   1]+0.490*[#   5]+0.001*[#   3]+0.001*[#   7]
    |psi|^2 = 0.983
==== e(   2) =    -9.98208 eV ==== 
     psi = 0.473*[#   2]+0.473*[#   6]
    |psi|^2 = 0.946
==== e(   3) =    -5.41933 eV ==== 
     psi = 0.373*[#   3]+0.373*[#   7]+0.124*[#   4]+0.124*[#   8]+0.001*[#   1]
          +0.001*[#   5]
    |psi|^2 = 0.997
==== e(   4) =    -5.40078 eV ==== 
     psi = 0.374*[#   4]+0.374*[#   8]+0.125*[#   3]+0.125*[#   7]
    |psi|^2 = 0.997
==== e(   5) =     0.65255 eV ==== 
     psi = 0.002*[#   1]+0.002*[#   5]
    |psi|^2 = 0.006
==== e(   6) =     1.15645 eV ==== 
     psi = 0.006*[#   2]+0.006*[#   6]
    |psi|^2 = 0.012
==== e(   7) =     1.25236 eV ==== 
 
    |psi|^2 = 0.002
==== e(   8) =     2.32892 eV ==== 
     psi = 0.008*[#   2]+0.008*[#   6]
    |psi|^2 = 0.016
==== e(   9) =     2.69743 eV ==== 
     psi = 0.001*[#   1]+0.001*[#   5]
    |psi|^2 = 0.003
==== e(  10) =     4.42953 eV ==== 
     psi = 0.006*[#   2]+0.006*[#   6]
    |psi|^2 = 0.012
==== e(  11) =     5.06064 eV ==== 
     psi = 0.001*[#   1]+0.001*[#   5]
    |psi|^2 = 0.002
==== e(  12) =     6.03820 eV ==== 
     psi = 0.350*[#   3]+0.350*[#   7]+0.117*[#   4]+0.117*[#   8]+0.002*[#   1]
          +0.002*[#   5]
    |psi|^2 = 0.938
==== e(  13) =     6.07379 eV ==== 
     psi = 0.352*[#   4]+0.352*[#   8]+0.117*[#   3]+0.117*[#   7]
    |psi|^2 = 0.940
==== e(  14) =     7.41043 eV ==== 
     psi = 0.003*[#   2]+0.003*[#   6]
    |psi|^2 = 0.007
==== e(  15) =     8.22830 eV ==== 
 
    |psi|^2 = 0.002
==== e(  16) =     9.15610 eV ==== 
     psi = 0.497*[#   2]+0.497*[#   6]
    |psi|^2 = 0.993
==== e(  17) =    10.35543 eV ==== 
     psi = 0.487*[#   1]+0.487*[#   5]
    |psi|^2 = 0.976
==== e(  18) =    11.18037 eV ==== 
     psi = 0.002*[#   2]+0.002*[#   6]
    |psi|^2 = 0.003
==== e(  19) =    12.17793 eV ==== 
 
    |psi|^2 = 0.001
==== e(  20) =    15.67639 eV ==== 
 
    |psi|^2 = 0.002
==== e(  21) =    16.92858 eV ==== 
 
    |psi|^2 = 0.001
==== e(  22) =    20.28763 eV ==== 
 
    |psi|^2 = 0.001
==== e(  23) =    20.83601 eV ==== 
 
    |psi|^2 = 0.001
==== e(  24) =    22.45920 eV ==== 
 
    |psi|^2 = 0.000
==== e(  25) =    25.84159 eV ==== 
 
    |psi|^2 = 0.000
==== e(  26) =    25.84908 eV ==== 
 
    |psi|^2 = 0.001
==== e(  27) =    26.29114 eV ==== 
 
    |psi|^2 = 0.000
==== e(  28) =    28.75375 eV ==== 
 
    |psi|^2 = 0.000
==== e(  29) =    29.18364 eV ==== 
 
    |psi|^2 = 0.000
==== e(  30) =    29.50703 eV ==== 
 
    |psi|^2 = 0.000
==== e(  31) =    30.79274 eV ==== 
 
    |psi|^2 = 0.000
==== e(  32) =    32.08676 eV ==== 
 
    |psi|^2 = 0.002
==== e(  33) =    32.48686 eV ==== 
 
    |psi|^2 = 0.002
==== e(  34) =    32.94301 eV ==== 
 
    |psi|^2 = 0.000
==== e(  35) =    33.03910 eV ==== 
 
    |psi|^2 = 0.000
==== e(  36) =    33.11605 eV ==== 
 
    |psi|^2 = 0.002
==== e(  37) =    33.59380 eV ==== 
 
    |psi|^2 = 0.000
==== e(  38) =    33.61014 eV ==== 
 
    |psi|^2 = 0.000
==== e(  39) =    33.67957 eV ==== 
 
    |psi|^2 = 0.001
==== e(  40) =    33.78416 eV ==== 
 
    |psi|^2 = 0.000
==== e(  41) =    33.86448 eV ==== 
     psi = 0.001*[#   4]+0.001*[#   8]
    |psi|^2 = 0.004
==== e(  42) =    34.12301 eV ==== 
 
    |psi|^2 = 0.001
==== e(  43) =    34.13860 eV ==== 
 
    |psi|^2 = 0.000
==== e(  44) =    34.49585 eV ==== 
 
    |psi|^2 = 0.000
==== e(  45) =    34.57810 eV ==== 
     psi = 0.001*[#   1]+0.001*[#   5]
    |psi|^2 = 0.003
==== e(  46) =    34.71056 eV ==== 
 
    |psi|^2 = 0.002
==== e(  47) =    34.86951 eV ==== 
 
    |psi|^2 = 0.000
==== e(  48) =    34.89448 eV ==== 
 
    |psi|^2 = 0.000
==== e(  49) =    34.97564 eV ==== 
 
    |psi|^2 = 0.001
==== e(  50) =    35.03554 eV ==== 
 
    |psi|^2 = 0.000
==== e(  51) =    35.04003 eV ==== 
 
    |psi|^2 = 0.002
==== e(  52) =    35.18695 eV ==== 
 
    |psi|^2 = 0.000
==== e(  53) =    35.34992 eV ==== 
 
    |psi|^2 = 0.000
==== e(  54) =    35.36696 eV ==== 
 
    |psi|^2 = 0.000
==== e(  55) =    35.66444 eV ==== 
 
    |psi|^2 = 0.001
==== e(  56) =    35.68867 eV ==== 
 
    |psi|^2 = 0.000
==== e(  57) =    35.79209 eV ==== 
 
    |psi|^2 = 0.000
==== e(  58) =    36.12908 eV ==== 
 
    |psi|^2 = 0.000
==== e(  59) =    36.22922 eV ==== 
 
    |psi|^2 = 0.001
==== e(  60) =    36.32908 eV ==== 
 
    |psi|^2 = 0.001

 k =   0.0250000000  0.0144337567  0.0000000000
==== e(   1) =   -21.89679 eV ==== 
     psi = 0.489*[#   1]+0.489*[#   5]+0.002*[#   3]+0.002*[#   7]
    |psi|^2 = 0.983
==== e(   2) =    -9.97568 eV ==== 
     psi = 0.473*[#   2]+0.473*[#   6]
    |psi|^2 = 0.946
==== e(   3) =    -5.44144 eV ==== 
     psi = 0.373*[#   3]+0.373*[#   7]+0.124*[#   4]+0.124*[#   8]+0.002*[#   1]
          +0.002*[#   5]
    |psi|^2 = 0.997
==== e(   4) =    -5.41256 eV ==== 
     psi = 0.374*[#   4]+0.374*[#   8]+0.125*[#   3]+0.125*[#   7]
    |psi|^2 = 0.997
==== e(   5) =     0.65987 eV ==== 
     psi = 0.002*[#   1]+0.002*[#   5]
    |psi|^2 = 0.006
==== e(   6) =     1.16385 eV ==== 
     psi = 0.006*[#   2]+0.006*[#   6]
    |psi|^2 = 0.012
==== e(   7) =     1.25976 eV ==== 
 
    |psi|^2 = 0.002
==== e(   8) =     2.33628 eV ==== 
     psi = 0.008*[#   2]+0.008*[#   6]
    |psi|^2 = 0.016
==== e(   9) =     2.70477 eV ==== 
     psi = 0.001*[#   1]+0.001*[#   5]
    |psi|^2 = 0.003
==== e(  10) =     4.43682 eV ==== 
     psi = 0.006*[#   2]+0.006*[#   6]
    |psi|^2 = 0.012
==== e(  11) =     5.06780 eV ==== 
     psi = 0.001*[#   1]+0.001*[#   5]
    |psi|^2 = 0.002
==== e(  12) =     6.04158 eV ==== 
     psi = 0.349*[#   3]+0.349*[#   7]+0.116*[#   4]+0.116*[#   8]+0.003*[#   1]
          +0.003*[#   5]
    |psi|^2 = 0.937
==== e(  13) =     6.09712 eV ==== 
     psi = 0.352*[#   4]+0.352*[#   8]+0.117*[#   3]+0.117*[#   7]
    |psi|^2 = 0.940
==== e(  14) =     7.41762 eV ==== 
     psi = 0.003*[#   2]+0.003*[#   6]
    |psi|^2 = 0.007
==== e(  15) =     8.23572 eV ==== 
 
    |psi|^2 = 0.002
==== e(  16) =     9.13710 eV ==== 
     psi = 0.496*[#   2]+0.496*[#   6]
    |psi|^2 = 0.993
==== e(  17) =    10.36469 eV ==== 
     psi = 0.486*[#   1]+0.486*[#   5]+0.001*[#   3]+0.001*[#   7]
    |psi|^2 = 0.976
==== e(  18) =    11.18735 eV ==== 
     psi = 0.002*[#   2]+0.002*[#   6]
    |psi|^2 = 0.003
==== e(  19) =    12.18525 eV ==== 
 
    |psi|^2 = 0.001
==== e(  20) =    15.68284 eV ==== 
 
    |psi|^2 = 0.002
==== e(  21) =    16.93584 eV ==== 
 
    |psi|^2 = 0.001
==== e(  22) =    20.30521 eV ==== 
 
    |psi|^2 = 0.002
==== e(  23) =    20.84029 eV ==== 
 
    |psi|^2 = 0.001
==== e(  24) =    22.46628 eV ==== 
 
    |psi|^2 = 0.000
==== e(  25) =    25.78446 eV ==== 
 
    |psi|^2 = 0.000
==== e(  26) =    25.78595 eV ==== 
 
    |psi|^2 = 0.001
==== e(  27) =    26.28783 eV ==== 
 
    |psi|^2 = 0.000
==== e(  28) =    28.76066 eV ==== 
 
    |psi|^2 = 0.000
==== e(  29) =    29.11530 eV ==== 
 
    |psi|^2 = 0.000
==== e(  30) =    29.57670 eV ==== 
 
    |psi|^2 = 0.000
==== e(  31) =    30.95574 eV ==== 
 
    |psi|^2 = 0.000
==== e(  32) =    31.80119 eV ==== 
 
    |psi|^2 = 0.003
==== e(  33) =    32.34028 eV ==== 
 
    |psi|^2 = 0.002
==== e(  34) =    32.64211 eV ==== 
 
    |psi|^2 = 0.000
==== e(  35) =    32.73065 eV ==== 
 
    |psi|^2 = 0.000
==== e(  36) =    32.96332 eV ==== 
 
    |psi|^2 = 0.002
==== e(  37) =    33.44192 eV ==== 
 
    |psi|^2 = 0.000
==== e(  38) =    33.46053 eV ==== 
 
    |psi|^2 = 0.000
==== e(  39) =    33.53328 eV ==== 
 
    |psi|^2 = 0.001
==== e(  40) =    33.62762 eV ==== 
 
    |psi|^2 = 0.000
==== e(  41) =    33.91265 eV ==== 
 
    |psi|^2 = 0.000
==== e(  42) =    33.93148 eV ==== 
 
    |psi|^2 = 0.001
==== e(  43) =    34.01229 eV ==== 
     psi = 0.001*[#   4]+0.001*[#   8]
    |psi|^2 = 0.004
==== e(  44) =    34.41930 eV ==== 
 
    |psi|^2 = 0.000
==== e(  45) =    34.63817 eV ==== 
     psi = 0.001*[#   1]+0.001*[#   5]
    |psi|^2 = 0.002
==== e(  46) =    34.76419 eV ==== 
 
    |psi|^2 = 0.001
==== e(  47) =    34.77047 eV ==== 
 
    |psi|^2 = 0.002
==== e(  48) =    34.86161 eV ==== 
 
    |psi|^2 = 0.000
==== e(  49) =    34.94208 eV ==== 
 
    |psi|^2 = 0.000
==== e(  50) =    35.12566 eV ==== 
 
    |psi|^2 = 0.000
==== e(  51) =    35.16237 eV ==== 
 
    |psi|^2 = 0.001
==== e(  52) =    35.29775 eV ==== 
 
    |psi|^2 = 0.000
==== e(  53) =    35.40501 eV ==== 
 
    |psi|^2 = 0.000
==== e(  54) =    35.43560 eV ==== 
 
    |psi|^2 = 0.001
==== e(  55) =    35.78921 eV ==== 
 
    |psi|^2 = 0.000
==== e(  56) =    35.88224 eV ==== 
 
    |psi|^2 = 0.000
==== e(  57) =    35.98627 eV ==== 
 
    |psi|^2 = 0.000
==== e(  58) =    36.20076 eV ==== 
 
    |psi|^2 = 0.000
==== e(  59) =    36.24220 eV ==== 
 
    |psi|^2 = 0.001
==== e(  60) =    36.39860 eV ==== 
 
    |psi|^2 = 0.001

 k =   0.0300000000  0.0173205081  0.0000000000
==== e(   1) =   -21.89027 eV ==== 
     psi = 0.488*[#   1]+0.488*[#   5]+0.003*[#   3]+0.003*[#   7]
    |psi|^2 = 0.983
==== e(   2) =    -9.96787 eV ==== 
     psi = 0.473*[#   2]+0.473*[#   6]
    |psi|^2 = 0.946
==== e(   3) =    -5.46832 eV ==== 
     psi = 0.372*[#   3]+0.372*[#   7]+0.124*[#   4]+0.124*[#   8]+0.002*[#   1]
          +0.002*[#   5]
    |psi|^2 = 0.997
==== e(   4) =    -5.42681 eV ==== 
     psi = 0.374*[#   4]+0.374*[#   8]+0.125*[#   3]+0.125*[#   7]
    |psi|^2 = 0.997
==== e(   5) =     0.66882 eV ==== 
     psi = 0.002*[#   1]+0.002*[#   5]
    |psi|^2 = 0.006
==== e(   6) =     1.17290 eV ==== 
     psi = 0.006*[#   2]+0.006*[#   6]
    |psi|^2 = 0.012
==== e(   7) =     1.26880 eV ==== 
 
    |psi|^2 = 0.002
==== e(   8) =     2.34527 eV ==== 
     psi = 0.008*[#   2]+0.008*[#   6]
    |psi|^2 = 0.016
==== e(   9) =     2.71375 eV ==== 
     psi = 0.001*[#   1]+0.001*[#   5]
    |psi|^2 = 0.003
==== e(  10) =     4.44574 eV ==== 
     psi = 0.006*[#   2]+0.006*[#   6]
    |psi|^2 = 0.012
==== e(  11) =     5.07655 eV ==== 
     psi = 0.001*[#   1]+0.001*[#   5]
    |psi|^2 = 0.002
==== e(  12) =     6.04560 eV ==== 
     psi = 0.348*[#   3]+0.348*[#   7]+0.116*[#   4]+0.116*[#   8]+0.004*[#   1]
          +0.004*[#   5]
    |psi|^2 = 0.936
==== e(  13) =     6.12563 eV ==== 
     psi = 0.352*[#   4]+0.352*[#   8]+0.117*[#   3]+0.117*[#   7]
    |psi|^2 = 0.940
==== e(  14) =     7.42641 eV ==== 
     psi = 0.003*[#   2]+0.003*[#   6]
    |psi|^2 = 0.007
==== e(  15) =     8.24479 eV ==== 
 
    |psi|^2 = 0.002
==== e(  16) =     9.11405 eV ==== 
     psi = 0.496*[#   2]+0.496*[#   6]
    |psi|^2 = 0.993
==== e(  17) =    10.37606 eV ==== 
     psi = 0.486*[#   1]+0.486*[#   5]+0.002*[#   3]+0.002*[#   7]
    |psi|^2 = 0.976
==== e(  18) =    11.19587 eV ==== 
     psi = 0.002*[#   2]+0.002*[#   6]
    |psi|^2 = 0.003
==== e(  19) =    12.19419 eV ==== 
 
    |psi|^2 = 0.001
==== e(  20) =    15.69071 eV ==== 
 
    |psi|^2 = 0.002
==== e(  21) =    16.94471 eV ==== 
 
    |psi|^2 = 0.001
==== e(  22) =    20.32661 eV ==== 
 
    |psi|^2 = 0.002
==== e(  23) =    20.84544 eV ==== 
 
    |psi|^2 = 0.001
==== e(  24) =    22.47494 eV ==== 
 
    |psi|^2 = 0.000
==== e(  25) =    25.70588 eV ==== 
 
    |psi|^2 = 0.001
==== e(  26) =    25.71767 eV ==== 
 
    |psi|^2 = 0.000
==== e(  27) =    26.28913 eV ==== 
 
    |psi|^2 = 0.000
==== e(  28) =    28.76911 eV ==== 
 
    |psi|^2 = 0.000
==== e(  29) =    29.05170 eV ==== 
 
    |psi|^2 = 0.000
==== e(  30) =    29.65897 eV ==== 
 
    |psi|^2 = 0.000
==== e(  31) =    31.13156 eV ==== 
 
    |psi|^2 = 0.000
==== e(  32) =    31.51066 eV ==== 
 
    |psi|^2 = 0.003
==== e(  33) =    32.19275 eV ==== 
 
    |psi|^2 = 0.002
==== e(  34) =    32.33055 eV ==== 
 
    |psi|^2 = 0.000
==== e(  35) =    32.42011 eV ==== 
 
    |psi|^2 = 0.000
==== e(  36) =    32.81665 eV ==== 
 
    |psi|^2 = 0.002
==== e(  37) =    33.28325 eV ==== 
 
    |psi|^2 = 0.000
==== e(  38) =    33.30669 eV ==== 
 
    |psi|^2 = 0.000
==== e(  39) =    33.38041 eV ==== 
 
    |psi|^2 = 0.001
==== e(  40) =    33.47269 eV ==== 
 
    |psi|^2 = 0.000
==== e(  41) =    33.65830 eV ==== 
 
    |psi|^2 = 0.000
==== e(  42) =    33.66881 eV ==== 
 
    |psi|^2 = 0.001
==== e(  43) =    34.16429 eV ==== 
     psi = 0.001*[#   4]+0.001*[#   8]
    |psi|^2 = 0.003
==== e(  44) =    34.33488 eV ==== 
 
    |psi|^2 = 0.000
==== e(  45) =    34.62029 eV ==== 
 
    |psi|^2 = 0.002
==== e(  46) =    34.71981 eV ==== 
 
    |psi|^2 = 0.002
==== e(  47) =    34.75048 eV ==== 
 
    |psi|^2 = 0.002
==== e(  48) =    34.79702 eV ==== 
 
    |psi|^2 = 0.000
==== e(  49) =    34.83225 eV ==== 
 
    |psi|^2 = 0.000
==== e(  50) =    35.29784 eV ==== 
 
    |psi|^2 = 0.000
==== e(  51) =    35.32308 eV ==== 
 
    |psi|^2 = 0.001
==== e(  52) =    35.46292 eV ==== 
 
    |psi|^2 = 0.000
==== e(  53) =    35.49368 eV ==== 
 
    |psi|^2 = 0.000
==== e(  54) =    35.58228 eV ==== 
 
    |psi|^2 = 0.002
==== e(  55) =    35.81118 eV ==== 
 
    |psi|^2 = 0.000
==== e(  56) =    35.82780 eV ==== 
 
    |psi|^2 = 0.000
==== e(  57) =    36.04866 eV ==== 
 
    |psi|^2 = 0.001
==== e(  58) =    36.30612 eV ==== 
 
    |psi|^2 = 0.001
==== e(  59) =    36.32832 eV ==== 
 
    |psi|^2 = 0.000
==== e(  60) =    36.56676 eV ==== 
 
    |psi|^2 = 0.001

 k =   0.0350000000  0.0202072594  0.0000000000
==== e(   1) =   -21.88256 eV ==== 
     psi = 0.486*[#   1]+0.486*[#   5]+0.004*[#   3]+0.004*[#   7]+0.001*[#   4]
          +0.001*[#   8]
    |psi|^2 = 0.983
==== e(   2) =    -9.95863 eV ==== 
     psi = 0.473*[#   2]+0.473*[#   6]
    |psi|^2 = 0.946
==== e(   3) =    -5.49993 eV ==== 
     psi = 0.372*[#   3]+0.372*[#   7]+0.124*[#   4]+0.124*[#   8]+0.003*[#   1]
          +0.003*[#   5]
    |psi|^2 = 0.997
==== e(   4) =    -5.44354 eV ==== 
     psi = 0.374*[#   4]+0.374*[#   8]+0.125*[#   3]+0.125*[#   7]
    |psi|^2 = 0.997
==== e(   5) =     0.67940 eV ==== 
     psi = 0.002*[#   1]+0.002*[#   5]+0.001*[#   3]+0.001*[#   7]
    |psi|^2 = 0.007
==== e(   6) =     1.18360 eV ==== 
     psi = 0.006*[#   2]+0.006*[#   6]
    |psi|^2 = 0.012
==== e(   7) =     1.27949 eV ==== 
 
    |psi|^2 = 0.002
==== e(   8) =     2.35589 eV ==== 
     psi = 0.008*[#   2]+0.008*[#   6]
    |psi|^2 = 0.016
==== e(   9) =     2.72436 eV ==== 
     psi = 0.001*[#   1]+0.001*[#   5]
    |psi|^2 = 0.003
==== e(  10) =     4.45628 eV ==== 
     psi = 0.006*[#   2]+0.006*[#   6]
    |psi|^2 = 0.012
==== e(  11) =     5.08689 eV ==== 
     psi = 0.001*[#   1]+0.001*[#   5]
    |psi|^2 = 0.002
==== e(  12) =     6.05021 eV ==== 
     psi = 0.346*[#   3]+0.346*[#   7]+0.115*[#   4]+0.115*[#   8]+0.006*[#   1]
          +0.006*[#   5]
    |psi|^2 = 0.935
==== e(  13) =     6.15919 eV ==== 
     psi = 0.352*[#   4]+0.352*[#   8]+0.117*[#   3]+0.117*[#   7]
    |psi|^2 = 0.939
==== e(  14) =     7.43680 eV ==== 
     psi = 0.003*[#   2]+0.003*[#   6]
    |psi|^2 = 0.007
==== e(  15) =     8.25550 eV ==== 
 
    |psi|^2 = 0.002
==== e(  16) =     9.08690 eV ==== 
     psi = 0.496*[#   2]+0.496*[#   6]
    |psi|^2 = 0.992
==== e(  17) =    10.38958 eV ==== 
     psi = 0.485*[#   1]+0.485*[#   5]+0.002*[#   3]+0.002*[#   7]
    |psi|^2 = 0.976
==== e(  18) =    11.20595 eV ==== 
     psi = 0.002*[#   2]+0.002*[#   6]
    |psi|^2 = 0.003
==== e(  19) =    12.20476 eV ==== 
 
    |psi|^2 = 0.001
==== e(  20) =    15.70001 eV ==== 
 
    |psi|^2 = 0.002
==== e(  21) =    16.95519 eV ==== 
 
    |psi|^2 = 0.001
==== e(  22) =    20.35177 eV ==== 
 
    |psi|^2 = 0.002
==== e(  23) =    20.85141 eV ==== 
 
    |psi|^2 = 0.001
==== e(  24) =    22.48518 eV ==== 
 
    |psi|^2 = 0.000
==== e(  25) =    25.60982 eV ==== 
 
    |psi|^2 = 0.001
==== e(  26) =    25.64230 eV ==== 
 
    |psi|^2 = 0.000
==== e(  27) =    26.29526 eV ==== 
 
    |psi|^2 = 0.001
==== e(  28) =    28.77910 eV ==== 
 
    |psi|^2 = 0.000
==== e(  29) =    28.99502 eV ==== 
 
    |psi|^2 = 0.000
==== e(  30) =    29.75252 eV ==== 
 
    |psi|^2 = 0.000
==== e(  31) =    31.21740 eV ==== 
 
    |psi|^2 = 0.003
==== e(  32) =    31.31564 eV ==== 
 
    |psi|^2 = 0.000
==== e(  33) =    32.01725 eV ==== 
 
    |psi|^2 = 0.000
==== e(  34) =    32.04524 eV ==== 
 
    |psi|^2 = 0.002
==== e(  35) =    32.10950 eV ==== 
 
    |psi|^2 = 0.000
==== e(  36) =    32.66974 eV ==== 
 
    |psi|^2 = 0.002
==== e(  37) =    33.11024 eV ==== 
 
    |psi|^2 = 0.000
==== e(  38) =    33.15323 eV ==== 
 
    |psi|^2 = 0.000
==== e(  39) =    33.21520 eV ==== 
 
    |psi|^2 = 0.001
==== e(  40) =    33.31945 eV ==== 
 
    |psi|^2 = 0.000
==== e(  41) =    33.39801 eV ==== 
 
    |psi|^2 = 0.001
==== e(  42) =    33.40380 eV ==== 
 
    |psi|^2 = 0.000
==== e(  43) =    34.23627 eV ==== 
 
    |psi|^2 = 0.000
==== e(  44) =    34.28962 eV ==== 
 
    |psi|^2 = 0.002
==== e(  45) =    34.50730 eV ==== 
     psi = 0.001*[#   4]+0.001*[#   8]
    |psi|^2 = 0.003
==== e(  46) =    34.61663 eV ==== 
 
    |psi|^2 = 0.002
==== e(  47) =    34.64807 eV ==== 
 
    |psi|^2 = 0.000
==== e(  48) =    34.78750 eV ==== 
 
    |psi|^2 = 0.000
==== e(  49) =    34.85621 eV ==== 
 
    |psi|^2 = 0.002
==== e(  50) =    35.46854 eV ==== 
 
    |psi|^2 = 0.000
==== e(  51) =    35.47288 eV ==== 
 
    |psi|^2 = 0.000
==== e(  52) =    35.59047 eV ==== 
 
    |psi|^2 = 0.000
==== e(  53) =    35.63480 eV ==== 
 
    |psi|^2 = 0.000
==== e(  54) =    35.66669 eV ==== 
 
    |psi|^2 = 0.000
==== e(  55) =    35.72276 eV ==== 
 
    |psi|^2 = 0.003
==== e(  56) =    35.78989 eV ==== 
 
    |psi|^2 = 0.002
==== e(  57) =    35.95341 eV ==== 
 
    |psi|^2 = 0.000
==== e(  58) =    36.39073 eV ==== 
 
    |psi|^2 = 0.000
==== e(  59) =    36.62742 eV ==== 
 
    |psi|^2 = 0.000
==== e(  60) =    36.65117 eV ==== 
 
    |psi|^2 = 0.001

 k =   0.0400000000  0.0230940108  0.0000000000
==== e(   1) =   -21.87366 eV ==== 
     psi = 0.485*[#   1]+0.485*[#   5]+0.005*[#   3]+0.005*[#   7]+0.002*[#   4]
          +0.002*[#   8]
    |psi|^2 = 0.983
==== e(   2) =    -9.94797 eV ==== 
     psi = 0.473*[#   2]+0.473*[#   6]
    |psi|^2 = 0.946
==== e(   3) =    -5.53617 eV ==== 
     psi = 0.371*[#   3]+0.371*[#   7]+0.124*[#   4]+0.124*[#   8]+0.004*[#   1]
          +0.004*[#   5]
    |psi|^2 = 0.997
==== e(   4) =    -5.46269 eV ==== 
     psi = 0.374*[#   4]+0.374*[#   8]+0.125*[#   3]+0.125*[#   7]
    |psi|^2 = 0.997
==== e(   5) =     0.69161 eV ==== 
     psi = 0.002*[#   1]+0.002*[#   5]+0.001*[#   3]+0.001*[#   7]
    |psi|^2 = 0.008
==== e(   6) =     1.19594 eV ==== 
     psi = 0.006*[#   2]+0.006*[#   6]
    |psi|^2 = 0.012
==== e(   7) =     1.29183 eV ==== 
 
    |psi|^2 = 0.003
==== e(   8) =     2.36815 eV ==== 
     psi = 0.008*[#   2]+0.008*[#   6]
    |psi|^2 = 0.016
==== e(   9) =     2.73660 eV ==== 
     psi = 0.001*[#   1]+0.001*[#   5]
    |psi|^2 = 0.003
==== e(  10) =     4.46844 eV ==== 
     psi = 0.006*[#   2]+0.006*[#   6]
    |psi|^2 = 0.012
==== e(  11) =     5.09882 eV ==== 
     psi = 0.001*[#   1]+0.001*[#   5]
    |psi|^2 = 0.002
==== e(  12) =     6.05529 eV ==== 
     psi = 0.344*[#   3]+0.344*[#   7]+0.115*[#   4]+0.115*[#   8]+0.008*[#   1]
          +0.008*[#   5]
    |psi|^2 = 0.934
==== e(  13) =     6.19781 eV ==== 
     psi = 0.352*[#   4]+0.352*[#   8]+0.117*[#   3]+0.117*[#   7]
    |psi|^2 = 0.939
==== e(  14) =     7.44878 eV ==== 
     psi = 0.003*[#   2]+0.003*[#   6]
    |psi|^2 = 0.007
==== e(  15) =     8.26786 eV ==== 
 
    |psi|^2 = 0.003
==== e(  16) =     9.05568 eV ==== 
     psi = 0.496*[#   2]+0.496*[#   6]
    |psi|^2 = 0.992
==== e(  17) =    10.40530 eV ==== 
     psi = 0.484*[#   1]+0.484*[#   5]+0.003*[#   3]+0.003*[#   7]+0.001*[#   4]
          +0.001*[#   8]
    |psi|^2 = 0.975
==== e(  18) =    11.21757 eV ==== 
     psi = 0.002*[#   2]+0.002*[#   6]
    |psi|^2 = 0.003
==== e(  19) =    12.21695 eV ==== 
 
    |psi|^2 = 0.001
==== e(  20) =    15.71073 eV ==== 
 
    |psi|^2 = 0.002
==== e(  21) =    16.96728 eV ==== 
 
    |psi|^2 = 0.001
==== e(  22) =    20.38061 eV ==== 
 
    |psi|^2 = 0.002
==== e(  23) =    20.85814 eV ==== 
 
    |psi|^2 = 0.001
==== e(  24) =    22.49701 eV ==== 
 
    |psi|^2 = 0.000
==== e(  25) =    25.49959 eV ==== 
 
    |psi|^2 = 0.002
==== e(  26) =    25.55955 eV ==== 
 
    |psi|^2 = 0.000
==== e(  27) =    26.30591 eV ==== 
 
    |psi|^2 = 0.001
==== e(  28) =    28.79062 eV ==== 
 
    |psi|^2 = 0.000
==== e(  29) =    28.94612 eV ==== 
 
    |psi|^2 = 0.000
==== e(  30) =    29.85606 eV ==== 
 
    |psi|^2 = 0.000
==== e(  31) =    30.92274 eV ==== 
 
    |psi|^2 = 0.003
==== e(  32) =    31.50201 eV ==== 
 
    |psi|^2 = 0.000
==== e(  33) =    31.70414 eV ==== 
 
    |psi|^2 = 0.000
==== e(  34) =    31.80201 eV ==== 
 
    |psi|^2 = 0.000
==== e(  35) =    31.89830 eV ==== 
 
    |psi|^2 = 0.002
==== e(  36) =    32.52135 eV ==== 
 
    |psi|^2 = 0.002
==== e(  37) =    32.90684 eV ==== 
 
    |psi|^2 = 0.000
==== e(  38) =    33.00095 eV ==== 
 
    |psi|^2 = 0.000
==== e(  39) =    33.00796 eV ==== 
 
    |psi|^2 = 0.001
==== e(  40) =    33.16421 eV ==== 
 
    |psi|^2 = 0.001
==== e(  41) =    33.16798 eV ==== 
 
    |psi|^2 = 0.000
==== e(  42) =    33.17386 eV ==== 
 
    |psi|^2 = 0.000
==== e(  43) =    34.12487 eV ==== 
 
    |psi|^2 = 0.000
==== e(  44) =    34.25682 eV ==== 
 
    |psi|^2 = 0.000
==== e(  45) =    34.49264 eV ==== 
 
    |psi|^2 = 0.002
==== e(  46) =    34.49928 eV ==== 
 
    |psi|^2 = 0.000
==== e(  47) =    34.55625 eV ==== 
     psi = 0.002*[#   4]+0.002*[#   8]
    |psi|^2 = 0.005
==== e(  48) =    34.72052 eV ==== 
 
    |psi|^2 = 0.000
==== e(  49) =    34.90682 eV ==== 
 
    |psi|^2 = 0.002
==== e(  50) =    35.45397 eV ==== 
 
    |psi|^2 = 0.000
==== e(  51) =    35.49398 eV ==== 
 
    |psi|^2 = 0.001
==== e(  52) =    35.64985 eV ==== 
 
    |psi|^2 = 0.000
==== e(  53) =    35.73575 eV ==== 
 
    |psi|^2 = 0.000
==== e(  54) =    35.76490 eV ==== 
 
    |psi|^2 = 0.001
==== e(  55) =    35.80468 eV ==== 
 
    |psi|^2 = 0.002
==== e(  56) =    35.80911 eV ==== 
 
    |psi|^2 = 0.000
==== e(  57) =    36.09307 eV ==== 
 
    |psi|^2 = 0.002
==== e(  58) =    36.37927 eV ==== 
 
    |psi|^2 = 0.000
==== e(  59) =    36.51586 eV ==== 
 
    |psi|^2 = 0.001
==== e(  60) =    36.70499 eV ==== 
 
    |psi|^2 = 0.000

 k =   0.0450000000  0.0259807621  0.0000000000
==== e(   1) =   -21.86358 eV ==== 
     psi = 0.483*[#   1]+0.483*[#   5]+0.007*[#   3]+0.007*[#   7]+0.002*[#   4]
          +0.002*[#   8]
    |psi|^2 = 0.983
==== e(   2) =    -9.93590 eV ==== 
     psi = 0.473*[#   2]+0.473*[#   6]
    |psi|^2 = 0.947
==== e(   3) =    -5.57703 eV ==== 
     psi = 0.370*[#   3]+0.370*[#   7]+0.123*[#   4]+0.123*[#   8]+0.005*[#   1]
          +0.005*[#   5]
    |psi|^2 = 0.997
==== e(   4) =    -5.48422 eV ==== 
     psi = 0.374*[#   4]+0.374*[#   8]+0.125*[#   3]+0.125*[#   7]
    |psi|^2 = 0.997
==== e(   5) =     0.70544 eV ==== 
     psi = 0.002*[#   1]+0.002*[#   5]+0.002*[#   3]+0.002*[#   7]
    |psi|^2 = 0.008
==== e(   6) =     1.20992 eV ==== 
     psi = 0.006*[#   2]+0.006*[#   6]
    |psi|^2 = 0.012
==== e(   7) =     1.30581 eV ==== 
 
    |psi|^2 = 0.003
==== e(   8) =     2.38204 eV ==== 
     psi = 0.008*[#   2]+0.008*[#   6]
    |psi|^2 = 0.016
==== e(   9) =     2.75047 eV ==== 
 
    |psi|^2 = 0.003
==== e(  10) =     4.48221 eV ==== 
     psi = 0.006*[#   2]+0.006*[#   6]
    |psi|^2 = 0.012
==== e(  11) =     5.11235 eV ==== 
     psi = 0.001*[#   1]+0.001*[#   5]
    |psi|^2 = 0.002
==== e(  12) =     6.06075 eV ==== 
     psi = 0.342*[#   3]+0.342*[#   7]+0.114*[#   4]+0.114*[#   8]+0.010*[#   1]
          +0.010*[#   5]
    |psi|^2 = 0.932
==== e(  13) =     6.24134 eV ==== 
     psi = 0.352*[#   4]+0.352*[#   8]+0.117*[#   3]+0.117*[#   7]
    |psi|^2 = 0.939
==== e(  14) =     7.46235 eV ==== 
     psi = 0.003*[#   2]+0.003*[#   6]
    |psi|^2 = 0.007
==== e(  15) =     8.28186 eV ==== 
 
    |psi|^2 = 0.003
==== e(  16) =     9.02042 eV ==== 
     psi = 0.496*[#   2]+0.496*[#   6]
    |psi|^2 = 0.991
==== e(  17) =    10.42321 eV ==== 
     psi = 0.482*[#   1]+0.482*[#   5]+0.004*[#   3]+0.004*[#   7]+0.001*[#   4]
          +0.001*[#   8]
    |psi|^2 = 0.975
==== e(  18) =    11.23073 eV ==== 
     psi = 0.002*[#   2]+0.002*[#   6]
    |psi|^2 = 0.003
==== e(  19) =    12.23076 eV ==== 
 
    |psi|^2 = 0.001
==== e(  20) =    15.72285 eV ==== 
 
    |psi|^2 = 0.002
==== e(  21) =    16.98097 eV ==== 
 
    |psi|^2 = 0.001
==== e(  22) =    20.41306 eV ==== 
 
    |psi|^2 = 0.003
==== e(  23) =    20.86555 eV ==== 
 
    |psi|^2 = 0.001
==== e(  24) =    22.51043 eV ==== 
 
    |psi|^2 = 0.000
==== e(  25) =    25.37699 eV ==== 
     psi = 0.001*[#   2]+0.001*[#   6]
    |psi|^2 = 0.002
==== e(  26) =    25.47054 eV ==== 
 
    |psi|^2 = 0.000
==== e(  27) =    26.32054 eV ==== 
 
    |psi|^2 = 0.001
==== e(  28) =    28.80368 eV ==== 
 
    |psi|^2 = 0.000
==== e(  29) =    28.90517 eV ==== 
 
    |psi|^2 = 0.000
==== e(  30) =    29.96834 eV ==== 
 
    |psi|^2 = 0.000
==== e(  31) =    30.62746 eV ==== 
 
    |psi|^2 = 0.003
==== e(  32) =    31.39191 eV ==== 
 
    |psi|^2 = 0.001
==== e(  33) =    31.47827 eV ==== 
 
    |psi|^2 = 0.000
==== e(  34) =    31.70700 eV ==== 
 
    |psi|^2 = 0.000
==== e(  35) =    31.75223 eV ==== 
 
    |psi|^2 = 0.002
==== e(  36) =    32.36954 eV ==== 
 
    |psi|^2 = 0.002
==== e(  37) =    32.66329 eV ==== 
 
    |psi|^2 = 0.000
==== e(  38) =    32.74549 eV ==== 
 
    |psi|^2 = 0.001
==== e(  39) =    32.85008 eV ==== 
 
    |psi|^2 = 0.000
==== e(  40) =    32.98292 eV ==== 
 
    |psi|^2 = 0.000
==== e(  41) =    32.98760 eV ==== 
 
    |psi|^2 = 0.001
==== e(  42) =    33.01837 eV ==== 
 
    |psi|^2 = 0.000
==== e(  43) =    34.00339 eV ==== 
 
    |psi|^2 = 0.000
==== e(  44) =    34.12628 eV ==== 
 
    |psi|^2 = 0.000
==== e(  45) =    34.35162 eV ==== 
 
    |psi|^2 = 0.000
==== e(  46) =    34.35935 eV ==== 
 
    |psi|^2 = 0.002
==== e(  47) =    34.61307 eV ==== 
 
    |psi|^2 = 0.000
==== e(  48) =    34.70629 eV ==== 
     psi = 0.002*[#   4]+0.002*[#   8]
    |psi|^2 = 0.004
==== e(  49) =    34.82796 eV ==== 
 
    |psi|^2 = 0.002
==== e(  50) =    35.30695 eV ==== 
 
    |psi|^2 = 0.000
==== e(  51) =    35.48128 eV ==== 
 
    |psi|^2 = 0.002
==== e(  52) =    35.80199 eV ==== 
 
    |psi|^2 = 0.000
==== e(  53) =    35.82843 eV ==== 
 
    |psi|^2 = 0.000
==== e(  54) =    35.83234 eV ==== 
 
    |psi|^2 = 0.000
==== e(  55) =    35.93269 eV ==== 
 
    |psi|^2 = 0.001
==== e(  56) =    35.98388 eV ==== 
 
    |psi|^2 = 0.000
==== e(  57) =    36.24918 eV ==== 
     psi = 0.001*[#   3]+0.001*[#   7]
    |psi|^2 = 0.003
==== e(  58) =    36.35237 eV ==== 
 
    |psi|^2 = 0.000
==== e(  59) =    36.36976 eV ==== 
 
    |psi|^2 = 0.002
==== e(  60) =    36.57869 eV ==== 
 
    |psi|^2 = 0.000

 k =   0.0500000000  0.0288675135  0.0000000000
==== e(   1) =   -21.85232 eV ==== 
     psi = 0.481*[#   1]+0.481*[#   5]+0.008*[#   3]+0.008*[#   7]+0.003*[#   4]
          +0.003*[#   8]
    |psi|^2 = 0.983
==== e(   2) =    -9.92241 eV ==== 
     psi = 0.474*[#   2]+0.474*[#   6]
    |psi|^2 = 0.947
==== e(   3) =    -5.62239 eV ==== 
     psi = 0.369*[#   3]+0.369*[#   7]+0.123*[#   4]+0.123*[#   8]+0.006*[#   1]
          +0.006*[#   5]
    |psi|^2 = 0.997
==== e(   4) =    -5.50804 eV ==== 
     psi = 0.374*[#   4]+0.374*[#   8]+0.125*[#   3]+0.125*[#   7]
    |psi|^2 = 0.997
==== e(   5) =     0.72090 eV ==== 
     psi = 0.002*[#   3]+0.002*[#   7]+0.002*[#   1]+0.002*[#   5]
    |psi|^2 = 0.009
==== e(   6) =     1.22555 eV ==== 
     psi = 0.006*[#   2]+0.006*[#   6]
    |psi|^2 = 0.012
==== e(   7) =     1.32143 eV ==== 
 
    |psi|^2 = 0.003
==== e(   8) =     2.39757 eV ==== 
     psi = 0.008*[#   2]+0.008*[#   6]
    |psi|^2 = 0.016
==== e(   9) =     2.76597 eV ==== 
 
    |psi|^2 = 0.003
==== e(  10) =     4.49761 eV ==== 
     psi = 0.006*[#   2]+0.006*[#   6]
    |psi|^2 = 0.012
==== e(  11) =     5.12746 eV ==== 
     psi = 0.001*[#   1]+0.001*[#   5]
    |psi|^2 = 0.002
==== e(  12) =     6.06660 eV ==== 
     psi = 0.340*[#   3]+0.340*[#   7]+0.113*[#   4]+0.113*[#   8]+0.012*[#   1]
          +0.012*[#   5]
    |psi|^2 = 0.930
==== e(  13) =     6.28979 eV ==== 
     psi = 0.352*[#   4]+0.352*[#   8]+0.117*[#   3]+0.117*[#   7]
    |psi|^2 = 0.939
==== e(  14) =     7.47752 eV ==== 
     psi = 0.003*[#   2]+0.003*[#   6]
    |psi|^2 = 0.007
==== e(  15) =     8.29750 eV ==== 
 
    |psi|^2 = 0.003
==== e(  16) =     8.98117 eV ==== 
     psi = 0.495*[#   2]+0.495*[#   6]
    |psi|^2 = 0.991
==== e(  17) =    10.44339 eV ==== 
     psi = 0.481*[#   1]+0.481*[#   5]+0.005*[#   3]+0.005*[#   7]+0.002*[#   4]
          +0.002*[#   8]
    |psi|^2 = 0.975
==== e(  18) =    11.24544 eV ==== 
     psi = 0.002*[#   2]+0.002*[#   6]
    |psi|^2 = 0.003
==== e(  19) =    12.24619 eV ==== 
 
    |psi|^2 = 0.001
==== e(  20) =    15.73637 eV ==== 
 
    |psi|^2 = 0.002
==== e(  21) =    16.99626 eV ==== 
 
    |psi|^2 = 0.001
==== e(  22) =    20.44905 eV ==== 
 
    |psi|^2 = 0.003
==== e(  23) =    20.87356 eV ==== 
 
    |psi|^2 = 0.001
==== e(  24) =    22.52544 eV ==== 
 
    |psi|^2 = 0.000
==== e(  25) =    25.24411 eV ==== 
     psi = 0.001*[#   2]+0.001*[#   6]
    |psi|^2 = 0.003
==== e(  26) =    25.37630 eV ==== 
 
    |psi|^2 = 0.000
==== e(  27) =    26.33864 eV ==== 
 
    |psi|^2 = 0.001
==== e(  28) =    28.81828 eV ==== 
 
    |psi|^2 = 0.000
==== e(  29) =    28.87191 eV ==== 
 
    |psi|^2 = 0.000
==== e(  30) =    30.08823 eV ==== 
 
    |psi|^2 = 0.000
==== e(  31) =    30.33214 eV ==== 
 
    |psi|^2 = 0.003
==== e(  32) =    31.08087 eV ==== 
 
    |psi|^2 = 0.001
==== e(  33) =    31.17445 eV ==== 
 
    |psi|^2 = 0.000
==== e(  34) =    31.60722 eV ==== 
 
    |psi|^2 = 0.002
==== e(  35) =    31.88928 eV ==== 
 
    |psi|^2 = 0.000
==== e(  36) =    32.20812 eV ==== 
 
    |psi|^2 = 0.002
==== e(  37) =    32.39489 eV ==== 
 
    |psi|^2 = 0.000
==== e(  38) =    32.47200 eV ==== 
 
    |psi|^2 = 0.001
==== e(  39) =    32.70073 eV ==== 
 
    |psi|^2 = 0.000
==== e(  40) =    32.82063 eV ==== 
 
    |psi|^2 = 0.000
==== e(  41) =    32.83249 eV ==== 
 
    |psi|^2 = 0.001
==== e(  42) =    32.87070 eV ==== 
 
    |psi|^2 = 0.000
==== e(  43) =    33.87325 eV ==== 
 
    |psi|^2 = 0.000
==== e(  44) =    33.98379 eV ==== 
 
    |psi|^2 = 0.000
==== e(  45) =    34.20549 eV ==== 
 
    |psi|^2 = 0.000
==== e(  46) =    34.22031 eV ==== 
 
    |psi|^2 = 0.001
==== e(  47) =    34.45432 eV ==== 
 
    |psi|^2 = 0.000
==== e(  48) =    34.62988 eV ==== 
 
    |psi|^2 = 0.002
==== e(  49) =    34.87125 eV ==== 
     psi = 0.002*[#   4]+0.002*[#   8]
    |psi|^2 = 0.004
==== e(  50) =    35.21586 eV ==== 
 
    |psi|^2 = 0.000
==== e(  51) =    35.55181 eV ==== 
 
    |psi|^2 = 0.002
==== e(  52) =    35.83002 eV ==== 
 
    |psi|^2 = 0.000
==== e(  53) =    35.87279 eV ==== 
 
    |psi|^2 = 0.001
==== e(  54) =    36.00776 eV ==== 
 
    |psi|^2 = 0.000
==== e(  55) =    36.09306 eV ==== 
 
    |psi|^2 = 0.001
==== e(  56) =    36.15299 eV ==== 
 
    |psi|^2 = 0.000
==== e(  57) =    36.22534 eV ==== 
 
    |psi|^2 = 0.002
==== e(  58) =    36.32236 eV ==== 
     psi = 0.001*[#   3]+0.001*[#   7]
    |psi|^2 = 0.003
==== e(  59) =    36.36766 eV ==== 
 
    |psi|^2 = 0.000
==== e(  60) =    36.45076 eV ==== 
 
    |psi|^2 = 0.000

 k =   0.0550000000  0.0317542648  0.0000000000
==== e(   1) =   -21.83987 eV ==== 
     psi = 0.479*[#   1]+0.479*[#   5]+0.010*[#   3]+0.010*[#   7]+0.003*[#   4]
          +0.003*[#   8]
    |psi|^2 = 0.983
==== e(   2) =    -9.90750 eV ==== 
     psi = 0.474*[#   2]+0.474*[#   6]
    |psi|^2 = 0.947
==== e(   3) =    -5.67216 eV ==== 
     psi = 0.368*[#   3]+0.368*[#   7]+0.123*[#   4]+0.123*[#   8]+0.008*[#   1]
          +0.008*[#   5]
    |psi|^2 = 0.997
==== e(   4) =    -5.53412 eV ==== 
     psi = 0.374*[#   4]+0.374*[#   8]+0.125*[#   3]+0.125*[#   7]
    |psi|^2 = 0.997
==== e(   5) =     0.73799 eV ==== 
     psi = 0.002*[#   3]+0.002*[#   7]+0.002*[#   1]+0.002*[#   5]
    |psi|^2 = 0.010
==== e(   6) =     1.24283 eV ==== 
     psi = 0.006*[#   2]+0.006*[#   6]
    |psi|^2 = 0.012
==== e(   7) =     1.33870 eV ==== 
 
    |psi|^2 = 0.003
==== e(   8) =     2.41473 eV ==== 
     psi = 0.008*[#   2]+0.008*[#   6]
    |psi|^2 = 0.015
==== e(   9) =     2.78311 eV ==== 
 
    |psi|^2 = 0.003
==== e(  10) =     4.51463 eV ==== 
     psi = 0.006*[#   2]+0.006*[#   6]
    |psi|^2 = 0.012
==== e(  11) =     5.14415 eV ==== 
     psi = 0.001*[#   1]+0.001*[#   5]
    |psi|^2 = 0.002
==== e(  12) =     6.07257 eV ==== 
     psi = 0.337*[#   3]+0.337*[#   7]+0.112*[#   4]+0.112*[#   8]+0.014*[#   1]
          +0.014*[#   5]
    |psi|^2 = 0.928
==== e(  13) =     6.34303 eV ==== 
     psi = 0.352*[#   4]+0.352*[#   8]+0.117*[#   3]+0.117*[#   7]
    |psi|^2 = 0.938
==== e(  14) =     7.49429 eV ==== 
     psi = 0.003*[#   2]+0.003*[#   6]
    |psi|^2 = 0.006
==== e(  15) =     8.31478 eV ==== 
 
    |psi|^2 = 0.004
==== e(  16) =     8.93798 eV ==== 
     psi = 0.495*[#   2]+0.495*[#   6]
    |psi|^2 = 0.990
==== e(  17) =    10.46588 eV ==== 
     psi = 0.479*[#   1]+0.479*[#   5]+0.006*[#   3]+0.006*[#   7]+0.002*[#   4]
          +0.002*[#   8]
    |psi|^2 = 0.975
==== e(  18) =    11.26169 eV ==== 
     psi = 0.002*[#   2]+0.002*[#   6]
    |psi|^2 = 0.003
==== e(  19) =    12.26324 eV ==== 
 
    |psi|^2 = 0.001
==== e(  20) =    15.75128 eV ==== 
 
    |psi|^2 = 0.002
==== e(  21) =    17.01315 eV ==== 
 
    |psi|^2 = 0.001
==== e(  22) =    20.48844 eV ==== 
 
    |psi|^2 = 0.004
==== e(  23) =    20.88206 eV ==== 
 
    |psi|^2 = 0.001
==== e(  24) =    22.54205 eV ==== 
 
    |psi|^2 = 0.000
==== e(  25) =    25.10280 eV ==== 
     psi = 0.001*[#   2]+0.001*[#   6]
    |psi|^2 = 0.003
==== e(  26) =    25.27775 eV ==== 
 
    |psi|^2 = 0.000
==== e(  27) =    26.35973 eV ==== 
 
    |psi|^2 = 0.001
==== e(  28) =    28.83440 eV ==== 
 
    |psi|^2 = 0.000
==== e(  29) =    28.84570 eV ==== 
 
    |psi|^2 = 0.001
==== e(  30) =    30.03715 eV ==== 
 
    |psi|^2 = 0.003
==== e(  31) =    30.21457 eV ==== 
 
    |psi|^2 = 0.000
==== e(  32) =    30.77121 eV ==== 
 
    |psi|^2 = 0.001
==== e(  33) =    30.86771 eV ==== 
 
    |psi|^2 = 0.000
==== e(  34) =    31.46341 eV ==== 
 
    |psi|^2 = 0.002
==== e(  35) =    32.01717 eV ==== 
 
    |psi|^2 = 0.002
==== e(  36) =    32.02704 eV ==== 
 
    |psi|^2 = 0.000
==== e(  37) =    32.15563 eV ==== 
 
    |psi|^2 = 0.000
==== e(  38) =    32.22351 eV ==== 
 
    |psi|^2 = 0.001
==== e(  39) =    32.55295 eV ==== 
 
    |psi|^2 = 0.000
==== e(  40) =    32.67609 eV ==== 
 
    |psi|^2 = 0.000
==== e(  41) =    32.68400 eV ==== 
 
    |psi|^2 = 0.001
==== e(  42) =    32.72511 eV ==== 
 
    |psi|^2 = 0.000
==== e(  43) =    33.73348 eV ==== 
 
    |psi|^2 = 0.000
==== e(  44) =    33.83963 eV ==== 
 
    |psi|^2 = 0.001
==== e(  45) =    34.06112 eV ==== 
 
    |psi|^2 = 0.000
==== e(  46) =    34.07494 eV ==== 
 
    |psi|^2 = 0.001
==== e(  47) =    34.25804 eV ==== 
 
    |psi|^2 = 0.000
==== e(  48) =    34.38446 eV ==== 
 
    |psi|^2 = 0.002
==== e(  49) =    35.04030 eV ==== 
     psi = 0.002*[#   4]+0.002*[#   8]
    |psi|^2 = 0.004
==== e(  50) =    35.17445 eV ==== 
 
    |psi|^2 = 0.000
==== e(  51) =    35.65557 eV ==== 
 
    |psi|^2 = 0.002
==== e(  52) =    35.83803 eV ==== 
 
    |psi|^2 = 0.001
==== e(  53) =    35.86250 eV ==== 
 
    |psi|^2 = 0.000
==== e(  54) =    36.07556 eV ==== 
 
    |psi|^2 = 0.001
==== e(  55) =    36.19613 eV ==== 
 
    |psi|^2 = 0.001
==== e(  56) =    36.23911 eV ==== 
 
    |psi|^2 = 0.000
==== e(  57) =    36.25844 eV ==== 
 
    |psi|^2 = 0.001
==== e(  58) =    36.29879 eV ==== 
 
    |psi|^2 = 0.002
==== e(  59) =    36.40555 eV ==== 
 
    |psi|^2 = 0.000
==== e(  60) =    36.45287 eV ==== 
 
    |psi|^2 = 0.000

 k =   0.0600000000  0.0346410162  0.0000000000
==== e(   1) =   -21.82627 eV ==== 
     psi = 0.476*[#   1]+0.476*[#   5]+0.011*[#   3]+0.011*[#   7]+0.004*[#   4]
          +0.004*[#   8]
    |psi|^2 = 0.983
==== e(   2) =    -9.89122 eV ==== 
     psi = 0.474*[#   2]+0.474*[#   6]
    |psi|^2 = 0.948
==== e(   3) =    -5.72622 eV ==== 
     psi = 0.367*[#   3]+0.367*[#   7]+0.122*[#   4]+0.122*[#   8]+0.009*[#   1]
          +0.009*[#   5]
    |psi|^2 = 0.997
==== e(   4) =    -5.56236 eV ==== 
     psi = 0.374*[#   4]+0.374*[#   8]+0.125*[#   3]+0.125*[#   7]
    |psi|^2 = 0.997
==== e(   5) =     0.75670 eV ==== 
     psi = 0.003*[#   3]+0.003*[#   7]+0.002*[#   1]+0.002*[#   5]
    |psi|^2 = 0.011
==== e(   6) =     1.26175 eV ==== 
     psi = 0.006*[#   2]+0.006*[#   6]
    |psi|^2 = 0.012
==== e(   7) =     1.35762 eV ==== 
 
    |psi|^2 = 0.003
==== e(   8) =     2.43352 eV ==== 
     psi = 0.008*[#   2]+0.008*[#   6]
    |psi|^2 = 0.015
==== e(   9) =     2.80188 eV ==== 
 
    |psi|^2 = 0.004
==== e(  10) =     4.53325 eV ==== 
     psi = 0.006*[#   2]+0.006*[#   6]
    |psi|^2 = 0.011
==== e(  11) =     5.16243 eV ==== 
     psi = 0.001*[#   1]+0.001*[#   5]
    |psi|^2 = 0.003
==== e(  12) =     6.07860 eV ==== 
     psi = 0.334*[#   3]+0.334*[#   7]+0.111*[#   4]+0.111*[#   8]+0.017*[#   1]
          +0.017*[#   5]
    |psi|^2 = 0.926
==== e(  13) =     6.40097 eV ==== 
     psi = 0.352*[#   4]+0.352*[#   8]+0.117*[#   3]+0.117*[#   7]
    |psi|^2 = 0.938
==== e(  14) =     7.51263 eV ==== 
     psi = 0.003*[#   2]+0.003*[#   6]
    |psi|^2 = 0.006
==== e(  15) =     8.33367 eV ==== 
     psi = 0.001*[#   3]+0.001*[#   7]
    |psi|^2 = 0.004
==== e(  16) =     8.89093 eV ==== 
     psi = 0.495*[#   2]+0.495*[#   6]
    |psi|^2 = 0.989
==== e(  17) =    10.49069 eV ==== 
     psi = 0.477*[#   1]+0.477*[#   5]+0.007*[#   3]+0.007*[#   7]+0.002*[#   4]
          +0.002*[#   8]
    |psi|^2 = 0.974
==== e(  18) =    11.27946 eV ==== 
     psi = 0.002*[#   2]+0.002*[#   6]
    |psi|^2 = 0.003
==== e(  19) =    12.28190 eV ==== 
 
    |psi|^2 = 0.002
==== e(  20) =    15.76755 eV ==== 
 
    |psi|^2 = 0.002
==== e(  21) =    17.03161 eV ==== 
 
    |psi|^2 = 0.001
==== e(  22) =    20.53109 eV ==== 
 
    |psi|^2 = 0.004
==== e(  23) =    20.89088 eV ==== 
 
    |psi|^2 = 0.001
==== e(  24) =    22.56025 eV ==== 
 
    |psi|^2 = 0.000
==== e(  25) =    24.95474 eV ==== 
     psi = 0.002*[#   2]+0.002*[#   6]
    |psi|^2 = 0.003
==== e(  26) =    25.17561 eV ==== 
 
    |psi|^2 = 0.000
==== e(  27) =    26.38342 eV ==== 
 
    |psi|^2 = 0.001
==== e(  28) =    28.82581 eV ==== 
 
    |psi|^2 = 0.001
==== e(  29) =    28.85201 eV ==== 
 
    |psi|^2 = 0.000
==== e(  30) =    29.74279 eV ==== 
 
    |psi|^2 = 0.003
==== e(  31) =    30.34629 eV ==== 
 
    |psi|^2 = 0.000
==== e(  32) =    30.46302 eV ==== 
 
    |psi|^2 = 0.001
==== e(  33) =    30.56205 eV ==== 
 
    |psi|^2 = 0.000
==== e(  34) =    31.32087 eV ==== 
 
    |psi|^2 = 0.002
==== e(  35) =    31.77279 eV ==== 
 
    |psi|^2 = 0.002
==== e(  36) =    31.80337 eV ==== 
 
    |psi|^2 = 0.000
==== e(  37) =    32.02807 eV ==== 
 
    |psi|^2 = 0.001
==== e(  38) =    32.24814 eV ==== 
 
    |psi|^2 = 0.000
==== e(  39) =    32.40676 eV ==== 
 
    |psi|^2 = 0.000
==== e(  40) =    32.53871 eV ==== 
 
    |psi|^2 = 0.001
==== e(  41) =    32.55698 eV ==== 
 
    |psi|^2 = 0.000
==== e(  42) =    32.58176 eV ==== 
 
    |psi|^2 = 0.000
==== e(  43) =    33.57959 eV ==== 
 
    |psi|^2 = 0.000
==== e(  44) =    33.69582 eV ==== 
 
    |psi|^2 = 0.001
==== e(  45) =    33.91557 eV ==== 
 
    |psi|^2 = 0.001
==== e(  46) =    33.91868 eV ==== 
 
    |psi|^2 = 0.000
==== e(  47) =    34.05030 eV ==== 
 
    |psi|^2 = 0.000
==== e(  48) =    34.13326 eV ==== 
 
    |psi|^2 = 0.002
==== e(  49) =    35.16484 eV ==== 
 
    |psi|^2 = 0.000
==== e(  50) =    35.21024 eV ==== 
     psi = 0.002*[#   4]+0.002*[#   8]
    |psi|^2 = 0.004
==== e(  51) =    35.74962 eV ==== 
 
    |psi|^2 = 0.002
==== e(  52) =    35.75546 eV ==== 
 
    |psi|^2 = 0.001
==== e(  53) =    35.91179 eV ==== 
 
    |psi|^2 = 0.001
==== e(  54) =    35.93801 eV ==== 
 
    |psi|^2 = 0.002
==== e(  55) =    36.13346 eV ==== 
 
    |psi|^2 = 0.000
==== e(  56) =    36.22059 eV ==== 
 
    |psi|^2 = 0.002
==== e(  57) =    36.37719 eV ==== 
 
    |psi|^2 = 0.000
==== e(  58) =    36.42009 eV ==== 
 
    |psi|^2 = 0.000
==== e(  59) =    36.55383 eV ==== 
 
    |psi|^2 = 0.000
==== e(  60) =    36.58474 eV ==== 
 
    |psi|^2 = 0.000

 k =   0.0650000000  0.0375277675  0.0000000000
==== e(   1) =   -21.81144 eV ==== 
     psi = 0.474*[#   1]+0.474*[#   5]+0.013*[#   3]+0.013*[#   7]+0.004*[#   4]
          +0.004*[#   8]
    |psi|^2 = 0.983
==== e(   2) =    -9.87348 eV ==== 
     psi = 0.474*[#   2]+0.474*[#   6]
    |psi|^2 = 0.948
==== e(   3) =    -5.78444 eV ==== 
     psi = 0.366*[#   3]+0.366*[#   7]+0.122*[#   4]+0.122*[#   8]+0.010*[#   1]
          +0.010*[#   5]
    |psi|^2 = 0.997
==== e(   4) =    -5.59268 eV ==== 
     psi = 0.374*[#   4]+0.374*[#   8]+0.125*[#   3]+0.125*[#   7]
    |psi|^2 = 0.997
==== e(   5) =     0.77705 eV ==== 
     psi = 0.003*[#   3]+0.003*[#   7]+0.001*[#   1]+0.001*[#   5]+0.001*[#   4]
          +0.001*[#   8]
    |psi|^2 = 0.011
==== e(   6) =     1.28231 eV ==== 
     psi = 0.006*[#   2]+0.006*[#   6]
    |psi|^2 = 0.012
==== e(   7) =     1.37818 eV ==== 
 
    |psi|^2 = 0.004
==== e(   8) =     2.45394 eV ==== 
     psi = 0.008*[#   2]+0.008*[#   6]
    |psi|^2 = 0.015
==== e(   9) =     2.82228 eV ==== 
 
    |psi|^2 = 0.004
==== e(  10) =     4.55351 eV ==== 
     psi = 0.006*[#   2]+0.006*[#   6]
    |psi|^2 = 0.011
==== e(  11) =     5.18230 eV ==== 
     psi = 0.001*[#   1]+0.001*[#   5]
    |psi|^2 = 0.003
==== e(  12) =     6.08468 eV ==== 
     psi = 0.331*[#   3]+0.331*[#   7]+0.110*[#   4]+0.110*[#   8]+0.020*[#   1]
          +0.020*[#   5]
    |psi|^2 = 0.924
==== e(  13) =     6.46362 eV ==== 
     psi = 0.352*[#   4]+0.352*[#   8]+0.117*[#   3]+0.117*[#   7]
    |psi|^2 = 0.938
==== e(  14) =     7.53258 eV ==== 
     psi = 0.003*[#   2]+0.003*[#   6]
    |psi|^2 = 0.006
==== e(  15) =     8.35422 eV ==== 
     psi = 0.001*[#   3]+0.001*[#   7]
    |psi|^2 = 0.004
==== e(  16) =     8.84007 eV ==== 
     psi = 0.494*[#   2]+0.494*[#   6]
    |psi|^2 = 0.989
==== e(  17) =    10.51788 eV ==== 
     psi = 0.475*[#   1]+0.475*[#   5]+0.009*[#   3]+0.009*[#   7]+0.003*[#   4]
          +0.003*[#   8]
    |psi|^2 = 0.974
==== e(  18) =    11.29878 eV ==== 
     psi = 0.002*[#   2]+0.002*[#   6]
    |psi|^2 = 0.003
==== e(  19) =    12.30218 eV ==== 
 
    |psi|^2 = 0.002
==== e(  20) =    15.78522 eV ==== 
 
    |psi|^2 = 0.002
==== e(  21) =    17.05168 eV ==== 
 
    |psi|^2 = 0.001
==== e(  22) =    20.57696 eV ==== 
     psi = 0.001*[#   1]+0.001*[#   5]
    |psi|^2 = 0.004
==== e(  23) =    20.89993 eV ==== 
 
    |psi|^2 = 0.001
==== e(  24) =    22.58008 eV ==== 
 
    |psi|^2 = 0.000
==== e(  25) =    24.80161 eV ==== 
     psi = 0.002*[#   2]+0.002*[#   6]
    |psi|^2 = 0.004
==== e(  26) =    25.07062 eV ==== 
 
    |psi|^2 = 0.000
==== e(  27) =    26.40938 eV ==== 
 
    |psi|^2 = 0.002
==== e(  28) =    28.81141 eV ==== 
 
    |psi|^2 = 0.001
==== e(  29) =    28.87114 eV ==== 
 
    |psi|^2 = 0.000
==== e(  30) =    29.44930 eV ==== 
     psi = 0.001*[#   1]+0.001*[#   5]
    |psi|^2 = 0.003
==== e(  31) =    30.15640 eV ==== 
 
    |psi|^2 = 0.001
==== e(  32) =    30.25813 eV ==== 
 
    |psi|^2 = 0.000
==== e(  33) =    30.48240 eV ==== 
 
    |psi|^2 = 0.000
==== e(  34) =    31.17968 eV ==== 
 
    |psi|^2 = 0.002
==== e(  35) =    31.49468 eV ==== 
 
    |psi|^2 = 0.002
==== e(  36) =    31.51603 eV ==== 
 
    |psi|^2 = 0.000
==== e(  37) =    31.86744 eV ==== 
 
    |psi|^2 = 0.001
==== e(  38) =    32.26218 eV ==== 
 
    |psi|^2 = 0.000
==== e(  39) =    32.29000 eV ==== 
 
    |psi|^2 = 0.000
==== e(  40) =    32.39559 eV ==== 
 
    |psi|^2 = 0.001
==== e(  41) =    32.44095 eV ==== 
 
    |psi|^2 = 0.000
==== e(  42) =    32.54318 eV ==== 
 
    |psi|^2 = 0.000
==== e(  43) =    33.40332 eV ==== 
 
    |psi|^2 = 0.000
==== e(  44) =    33.55301 eV ==== 
 
    |psi|^2 = 0.001
==== e(  45) =    33.71805 eV ==== 
 
    |psi|^2 = 0.001
==== e(  46) =    33.77836 eV ==== 
 
    |psi|^2 = 0.000
==== e(  47) =    33.85623 eV ==== 
 
    |psi|^2 = 0.000
==== e(  48) =    33.91245 eV ==== 
 
    |psi|^2 = 0.002
==== e(  49) =    35.17288 eV ==== 
 
    |psi|^2 = 0.000
==== e(  50) =    35.37623 eV ==== 
     psi = 0.001*[#   4]+0.001*[#   8]
    |psi|^2 = 0.004
==== e(  51) =    35.65212 eV ==== 
 
    |psi|^2 = 0.001
==== e(  52) =    35.80548 eV ==== 
 
    |psi|^2 = 0.003
==== e(  53) =    35.80976 eV ==== 
 
    |psi|^2 = 0.002
==== e(  54) =    35.97867 eV ==== 
 
    |psi|^2 = 0.002
==== e(  55) =    35.99959 eV ==== 
 
    |psi|^2 = 0.000
==== e(  56) =    36.12046 eV ==== 
 
    |psi|^2 = 0.001
==== e(  57) =    36.56235 eV ==== 
 
    |psi|^2 = 0.000
==== e(  58) =    36.56354 eV ==== 
 
    |psi|^2 = 0.000
==== e(  59) =    36.73286 eV ==== 
 
    |psi|^2 = 0.000
==== e(  60) =    36.73846 eV ==== 
 
    |psi|^2 = 0.000

 k =   0.0700000000  0.0404145188  0.0000000000
==== e(   1) =   -21.79545 eV ==== 
     psi = 0.471*[#   1]+0.471*[#   5]+0.015*[#   3]+0.015*[#   7]+0.005*[#   4]
          +0.005*[#   8]
    |psi|^2 = 0.983
==== e(   2) =    -9.85434 eV ==== 
     psi = 0.474*[#   2]+0.474*[#   6]
    |psi|^2 = 0.949
==== e(   3) =    -5.84674 eV ==== 
     psi = 0.365*[#   3]+0.365*[#   7]+0.122*[#   4]+0.122*[#   8]+0.012*[#   1]
          +0.012*[#   5]
    |psi|^2 = 0.997
==== e(   4) =    -5.62500 eV ==== 
     psi = 0.374*[#   4]+0.374*[#   8]+0.125*[#   3]+0.125*[#   7]
    |psi|^2 = 0.997
==== e(   5) =     0.79902 eV ==== 
     psi = 0.004*[#   3]+0.004*[#   7]+0.001*[#   1]+0.001*[#   5]+0.001*[#   4]
          +0.001*[#   8]
    |psi|^2 = 0.012
==== e(   6) =     1.30452 eV ==== 
     psi = 0.006*[#   2]+0.006*[#   6]
    |psi|^2 = 0.012
==== e(   7) =     1.40038 eV ==== 
     psi = 0.001*[#   3]+0.001*[#   7]
    |psi|^2 = 0.004
==== e(   8) =     2.47600 eV ==== 
     psi = 0.008*[#   2]+0.008*[#   6]
    |psi|^2 = 0.015
==== e(   9) =     2.84431 eV ==== 
 
    |psi|^2 = 0.004
==== e(  10) =     4.57538 eV ==== 
     psi = 0.006*[#   2]+0.006*[#   6]
    |psi|^2 = 0.011
==== e(  11) =     5.20374 eV ==== 
     psi = 0.001*[#   1]+0.001*[#   5]
    |psi|^2 = 0.003
==== e(  12) =     6.09064 eV ==== 
     psi = 0.328*[#   3]+0.328*[#   7]+0.109*[#   4]+0.109*[#   8]+0.023*[#   1]
          +0.023*[#   5]
    |psi|^2 = 0.922
==== e(  13) =     6.53076 eV ==== 
     psi = 0.351*[#   4]+0.351*[#   8]+0.117*[#   3]+0.117*[#   7]
    |psi|^2 = 0.937
==== e(  14) =     7.55411 eV ==== 
     psi = 0.003*[#   2]+0.003*[#   6]
    |psi|^2 = 0.006
==== e(  15) =     8.37638 eV ==== 
     psi = 0.001*[#   3]+0.001*[#   7]
    |psi|^2 = 0.004
==== e(  16) =     8.78547 eV ==== 
     psi = 0.494*[#   2]+0.494*[#   6]
    |psi|^2 = 0.988
==== e(  17) =    10.54748 eV ==== 
     psi = 0.473*[#   1]+0.473*[#   5]+0.010*[#   3]+0.010*[#   7]+0.003*[#   4]
          +0.003*[#   8]
    |psi|^2 = 0.973
==== e(  18) =    11.31964 eV ==== 
     psi = 0.002*[#   2]+0.002*[#   6]
    |psi|^2 = 0.003
==== e(  19) =    12.32408 eV ==== 
 
    |psi|^2 = 0.002
==== e(  20) =    15.80423 eV ==== 
 
    |psi|^2 = 0.002
==== e(  21) =    17.07333 eV ==== 
 
    |psi|^2 = 0.001
==== e(  22) =    20.62587 eV ==== 
     psi = 0.001*[#   1]+0.001*[#   3]+0.001*[#   5]+0.001*[#   7]
    |psi|^2 = 0.005
==== e(  23) =    20.90900 eV ==== 
 
    |psi|^2 = 0.001
==== e(  24) =    22.60154 eV ==== 
 
    |psi|^2 = 0.000
==== e(  25) =    24.64472 eV ==== 
     psi = 0.002*[#   2]+0.002*[#   6]
    |psi|^2 = 0.004
==== e(  26) =    24.96334 eV ==== 
 
    |psi|^2 = 0.000
==== e(  27) =    26.43721 eV ==== 
 
    |psi|^2 = 0.002
==== e(  28) =    28.80144 eV ==== 
 
    |psi|^2 = 0.001
==== e(  29) =    28.89160 eV ==== 
 
    |psi|^2 = 0.000
==== e(  30) =    29.15702 eV ==== 
     psi = 0.001*[#   1]+0.001*[#   5]
    |psi|^2 = 0.003
==== e(  31) =    29.85139 eV ==== 
 
    |psi|^2 = 0.001
==== e(  32) =    29.95646 eV ==== 
 
    |psi|^2 = 0.000
==== e(  33) =    30.62145 eV ==== 
 
    |psi|^2 = 0.000
==== e(  34) =    31.03988 eV ==== 
 
    |psi|^2 = 0.002
==== e(  35) =    31.20545 eV ==== 
 
    |psi|^2 = 0.002
==== e(  36) =    31.22526 eV ==== 
 
    |psi|^2 = 0.000
==== e(  37) =    31.71970 eV ==== 
 
    |psi|^2 = 0.001
==== e(  38) =    32.11922 eV ==== 
 
    |psi|^2 = 0.000
==== e(  39) =    32.19390 eV ==== 
 
    |psi|^2 = 0.000
==== e(  40) =    32.25423 eV ==== 
 
    |psi|^2 = 0.001
==== e(  41) =    32.30311 eV ==== 
 
    |psi|^2 = 0.000
==== e(  42) =    32.65421 eV ==== 
 
    |psi|^2 = 0.000
==== e(  43) =    33.19778 eV ==== 
 
    |psi|^2 = 0.000
==== e(  44) =    33.41146 eV ==== 
 
    |psi|^2 = 0.001
==== e(  45) =    33.46983 eV ==== 
 
    |psi|^2 = 0.001
==== e(  46) =    33.64036 eV ==== 
 
    |psi|^2 = 0.000
==== e(  47) =    33.69577 eV ==== 
 
    |psi|^2 = 0.000
==== e(  48) =    33.73956 eV ==== 
 
    |psi|^2 = 0.002
==== e(  49) =    35.18659 eV ==== 
 
    |psi|^2 = 0.000
==== e(  50) =    35.50694 eV ==== 
 
    |psi|^2 = 0.001
==== e(  51) =    35.54279 eV ==== 
 
    |psi|^2 = 0.000
==== e(  52) =    35.71116 eV ==== 
     psi = 0.002*[#   4]+0.002*[#   8]
    |psi|^2 = 0.005
==== e(  53) =    35.84411 eV ==== 
 
    |psi|^2 = 0.001
==== e(  54) =    35.86317 eV ==== 
 
    |psi|^2 = 0.000
==== e(  55) =    35.97659 eV ==== 
 
    |psi|^2 = 0.003
==== e(  56) =    36.05629 eV ==== 
 
    |psi|^2 = 0.000
==== e(  57) =    36.64853 eV ==== 
 
    |psi|^2 = 0.001
==== e(  58) =    36.72070 eV ==== 
 
    |psi|^2 = 0.000
==== e(  59) =    36.74940 eV ==== 
 
    |psi|^2 = 0.000
==== e(  60) =    36.90244 eV ==== 
 
    |psi|^2 = 0.000

 k =   0.0750000000  0.0433012702  0.0000000000
==== e(   1) =   -21.77827 eV ==== 
     psi = 0.469*[#   1]+0.469*[#   5]+0.017*[#   3]+0.017*[#   7]+0.006*[#   4]
          +0.006*[#   8]
    |psi|^2 = 0.983
==== e(   2) =    -9.83379 eV ==== 
     psi = 0.475*[#   2]+0.475*[#   6]
    |psi|^2 = 0.949
==== e(   3) =    -5.91301 eV ==== 
     psi = 0.364*[#   3]+0.364*[#   7]+0.121*[#   4]+0.121*[#   8]+0.014*[#   1]
          +0.014*[#   5]
    |psi|^2 = 0.997
==== e(   4) =    -5.65926 eV ==== 
     psi = 0.374*[#   4]+0.374*[#   8]+0.125*[#   3]+0.125*[#   7]
    |psi|^2 = 0.997
==== e(   5) =     0.82262 eV ==== 
     psi = 0.004*[#   3]+0.004*[#   7]+0.001*[#   4]+0.001*[#   8]+0.001*[#   1]
          +0.001*[#   5]
    |psi|^2 = 0.013
==== e(   6) =     1.32837 eV ==== 
     psi = 0.006*[#   2]+0.006*[#   6]
    |psi|^2 = 0.012
==== e(   7) =     1.42423 eV ==== 
     psi = 0.001*[#   3]+0.001*[#   7]
    |psi|^2 = 0.004
==== e(   8) =     2.49969 eV ==== 
     psi = 0.007*[#   2]+0.007*[#   6]
    |psi|^2 = 0.015
==== e(   9) =     2.86798 eV ==== 
     psi = 0.001*[#   3]+0.001*[#   7]
    |psi|^2 = 0.004
==== e(  10) =     4.59887 eV ==== 
     psi = 0.006*[#   2]+0.006*[#   6]
    |psi|^2 = 0.011
==== e(  11) =     5.22676 eV ==== 
     psi = 0.001*[#   1]+0.001*[#   5]
    |psi|^2 = 0.003
==== e(  12) =     6.09640 eV ==== 
     psi = 0.325*[#   3]+0.325*[#   7]+0.108*[#   4]+0.108*[#   8]+0.027*[#   1]
          +0.027*[#   5]
    |psi|^2 = 0.919
==== e(  13) =     6.60234 eV ==== 
     psi = 0.351*[#   4]+0.351*[#   8]+0.117*[#   3]+0.117*[#   7]
    |psi|^2 = 0.937
==== e(  14) =     7.57723 eV ==== 
     psi = 0.003*[#   2]+0.003*[#   6]
    |psi|^2 = 0.006
==== e(  15) =     8.40018 eV ==== 
     psi = 0.002*[#   3]+0.002*[#   7]
    |psi|^2 = 0.005
==== e(  16) =     8.72718 eV ==== 
     psi = 0.494*[#   2]+0.494*[#   6]
    |psi|^2 = 0.987
==== e(  17) =    10.57953 eV ==== 
     psi = 0.470*[#   1]+0.470*[#   5]+0.012*[#   3]+0.012*[#   7]+0.004*[#   4]
          +0.004*[#   8]
    |psi|^2 = 0.973
==== e(  18) =    11.34203 eV ==== 
     psi = 0.002*[#   2]+0.002*[#   6]
    |psi|^2 = 0.003
==== e(  19) =    12.34759 eV ==== 
 
    |psi|^2 = 0.002
==== e(  20) =    15.82459 eV ==== 
 
    |psi|^2 = 0.002
==== e(  21) =    17.09657 eV ==== 
 
    |psi|^2 = 0.001
==== e(  22) =    20.67765 eV ==== 
     psi = 0.001*[#   1]+0.001*[#   3]+0.001*[#   5]+0.001*[#   7]
    |psi|^2 = 0.006
==== e(  23) =    20.91788 eV ==== 
 
    |psi|^2 = 0.001
==== e(  24) =    22.62464 eV ==== 
 
    |psi|^2 = 0.000
==== e(  25) =    24.48539 eV ==== 
     psi = 0.002*[#   2]+0.002*[#   6]
    |psi|^2 = 0.005
==== e(  26) =    24.85423 eV ==== 
 
    |psi|^2 = 0.000
==== e(  27) =    26.46663 eV ==== 
     psi = 0.001*[#   2]+0.001*[#   6]
    |psi|^2 = 0.002
==== e(  28) =    28.79444 eV ==== 
 
    |psi|^2 = 0.001
==== e(  29) =    28.86233 eV ==== 
     psi = 0.001*[#   1]+0.001*[#   5]
    |psi|^2 = 0.003
==== e(  30) =    28.91713 eV ==== 
 
    |psi|^2 = 0.000
==== e(  31) =    29.54807 eV ==== 
 
    |psi|^2 = 0.001
==== e(  32) =    29.65793 eV ==== 
 
    |psi|^2 = 0.000
==== e(  33) =    30.76190 eV ==== 
 
    |psi|^2 = 0.000
==== e(  34) =    30.90150 eV ==== 
 
    |psi|^2 = 0.002
==== e(  35) =    30.91283 eV ==== 
 
    |psi|^2 = 0.002
==== e(  36) =    30.93418 eV ==== 
 
    |psi|^2 = 0.000
==== e(  37) =    31.57750 eV ==== 
 
    |psi|^2 = 0.001
==== e(  38) =    31.97788 eV ==== 
 
    |psi|^2 = 0.000
==== e(  39) =    32.06884 eV ==== 
 
    |psi|^2 = 0.000
==== e(  40) =    32.11438 eV ==== 
 
    |psi|^2 = 0.001
==== e(  41) =    32.16904 eV ==== 
 
    |psi|^2 = 0.000
==== e(  42) =    32.76452 eV ==== 
 
    |psi|^2 = 0.000
==== e(  43) =    32.96634 eV ==== 
 
    |psi|^2 = 0.000
==== e(  44) =    33.19738 eV ==== 
 
    |psi|^2 = 0.001
==== e(  45) =    33.27132 eV ==== 
 
    |psi|^2 = 0.001
==== e(  46) =    33.50497 eV ==== 
 
    |psi|^2 = 0.000
==== e(  47) =    33.58087 eV ==== 
 
    |psi|^2 = 0.000
==== e(  48) =    33.59054 eV ==== 
 
    |psi|^2 = 0.002
==== e(  49) =    35.18587 eV ==== 
 
    |psi|^2 = 0.000
==== e(  50) =    35.44406 eV ==== 
 
    |psi|^2 = 0.000
==== e(  51) =    35.46855 eV ==== 
 
    |psi|^2 = 0.000
==== e(  52) =    35.72712 eV ==== 
 
    |psi|^2 = 0.000
==== e(  53) =    35.78887 eV ==== 
     psi = 0.002*[#   4]+0.002*[#   8]
    |psi|^2 = 0.006
==== e(  54) =    35.84855 eV ==== 
 
    |psi|^2 = 0.000
==== e(  55) =    35.87223 eV ==== 
 
    |psi|^2 = 0.003
==== e(  56) =    36.01820 eV ==== 
 
    |psi|^2 = 0.001
==== e(  57) =    36.50927 eV ==== 
 
    |psi|^2 = 0.000
==== e(  58) =    36.68078 eV ==== 
 
    |psi|^2 = 0.001
==== e(  59) =    36.93818 eV ==== 
 
    |psi|^2 = 0.000
==== e(  60) =    37.07055 eV ==== 
 
    |psi|^2 = 0.000

 k =   0.0800000000  0.0461880215  0.0000000000
==== e(   1) =   -21.75991 eV ==== 
     psi = 0.466*[#   1]+0.466*[#   5]+0.019*[#   3]+0.019*[#   7]+0.006*[#   4]
          +0.006*[#   8]
    |psi|^2 = 0.983
==== e(   2) =    -9.81183 eV ==== 
     psi = 0.475*[#   2]+0.475*[#   6]
    |psi|^2 = 0.950
==== e(   3) =    -5.98303 eV ==== 
     psi = 0.362*[#   3]+0.362*[#   7]+0.121*[#   4]+0.121*[#   8]+0.015*[#   1]
          +0.015*[#   5]
    |psi|^2 = 0.997
==== e(   4) =    -5.69531 eV ==== 
     psi = 0.374*[#   4]+0.374*[#   8]+0.125*[#   3]+0.125*[#   7]
    |psi|^2 = 0.997
==== e(   5) =     0.84785 eV ==== 
     psi = 0.005*[#   3]+0.005*[#   7]+0.002*[#   4]+0.002*[#   8]+0.001*[#   1]
          +0.001*[#   5]
    |psi|^2 = 0.014
==== e(   6) =     1.35387 eV ==== 
     psi = 0.006*[#   2]+0.006*[#   6]
    |psi|^2 = 0.012
==== e(   7) =     1.44973 eV ==== 
     psi = 0.001*[#   3]+0.001*[#   7]
    |psi|^2 = 0.004
==== e(   8) =     2.52501 eV ==== 
     psi = 0.007*[#   2]+0.007*[#   6]
    |psi|^2 = 0.015
==== e(   9) =     2.89328 eV ==== 
     psi = 0.001*[#   3]+0.001*[#   7]
    |psi|^2 = 0.004
==== e(  10) =     4.62397 eV ==== 
     psi = 0.006*[#   2]+0.006*[#   6]
    |psi|^2 = 0.011
==== e(  11) =     5.25135 eV ==== 
     psi = 0.001*[#   1]+0.001*[#   5]
    |psi|^2 = 0.003
==== e(  12) =     6.10188 eV ==== 
     psi = 0.321*[#   3]+0.321*[#   7]+0.107*[#   4]+0.107*[#   8]+0.031*[#   1]
          +0.031*[#   5]
    |psi|^2 = 0.917
==== e(  13) =     6.67834 eV ==== 
     psi = 0.351*[#   4]+0.351*[#   8]+0.117*[#   3]+0.117*[#   7]
    |psi|^2 = 0.936
==== e(  14) =     7.60193 eV ==== 
     psi = 0.003*[#   2]+0.003*[#   6]
    |psi|^2 = 0.006
==== e(  15) =     8.42559 eV ==== 
     psi = 0.002*[#   3]+0.002*[#   7]
    |psi|^2 = 0.005
==== e(  16) =     8.66530 eV ==== 
     psi = 0.493*[#   2]+0.493*[#   6]
    |psi|^2 = 0.986
==== e(  17) =    10.61409 eV ==== 
     psi = 0.468*[#   1]+0.468*[#   5]+0.014*[#   3]+0.014*[#   7]+0.005*[#   4]
          +0.005*[#   8]
    |psi|^2 = 0.972
==== e(  18) =    11.36594 eV ==== 
     psi = 0.002*[#   2]+0.002*[#   6]
    |psi|^2 = 0.003
==== e(  19) =    12.37271 eV ==== 
 
    |psi|^2 = 0.002
==== e(  20) =    15.84627 eV ==== 
 
    |psi|^2 = 0.002
==== e(  21) =    17.12138 eV ==== 
 
    |psi|^2 = 0.001
==== e(  22) =    20.73215 eV ==== 
     psi = 0.001*[#   3]+0.001*[#   7]+0.001*[#   1]+0.001*[#   5]
    |psi|^2 = 0.006
==== e(  23) =    20.92629 eV ==== 
 
    |psi|^2 = 0.001
==== e(  24) =    22.64938 eV ==== 
 
    |psi|^2 = 0.000
==== e(  25) =    24.32477 eV ==== 
     psi = 0.002*[#   2]+0.002*[#   6]
    |psi|^2 = 0.005
==== e(  26) =    24.74382 eV ==== 
 
    |psi|^2 = 0.000
==== e(  27) =    26.49721 eV ==== 
     psi = 0.001*[#   2]+0.001*[#   6]
    |psi|^2 = 0.002
==== e(  28) =    28.57451 eV ==== 
     psi = 0.001*[#   1]+0.001*[#   5]
    |psi|^2 = 0.003
==== e(  29) =    28.78749 eV ==== 
 
    |psi|^2 = 0.001
==== e(  30) =    28.93847 eV ==== 
 
    |psi|^2 = 0.000
==== e(  31) =    29.24656 eV ==== 
 
    |psi|^2 = 0.001
==== e(  32) =    29.36490 eV ==== 
 
    |psi|^2 = 0.000
==== e(  33) =    30.61943 eV ==== 
 
    |psi|^2 = 0.002
==== e(  34) =    30.64385 eV ==== 
 
    |psi|^2 = 0.000
==== e(  35) =    30.76457 eV ==== 
 
    |psi|^2 = 0.002
==== e(  36) =    30.90140 eV ==== 
 
    |psi|^2 = 0.000
==== e(  37) =    31.43844 eV ==== 
 
    |psi|^2 = 0.001
==== e(  38) =    31.83818 eV ==== 
 
    |psi|^2 = 0.000
==== e(  39) =    31.93936 eV ==== 
 
    |psi|^2 = 0.000
==== e(  40) =    31.97587 eV ==== 
 
    |psi|^2 = 0.001
==== e(  41) =    32.04028 eV ==== 
 
    |psi|^2 = 0.000
==== e(  42) =    32.70841 eV ==== 
 
    |psi|^2 = 0.000
==== e(  43) =    32.83947 eV ==== 
 
    |psi|^2 = 0.000
==== e(  44) =    32.91731 eV ==== 
 
    |psi|^2 = 0.002
==== e(  45) =    33.13265 eV ==== 
 
    |psi|^2 = 0.001
==== e(  46) =    33.37258 eV ==== 
 
    |psi|^2 = 0.000
==== e(  47) =    33.45023 eV ==== 
 
    |psi|^2 = 0.001
==== e(  48) =    33.52108 eV ==== 
 
    |psi|^2 = 0.000
==== e(  49) =    35.13081 eV ==== 
 
    |psi|^2 = 0.000
==== e(  50) =    35.34699 eV ==== 
 
    |psi|^2 = 0.001
==== e(  51) =    35.38644 eV ==== 
 
    |psi|^2 = 0.000
==== e(  52) =    35.59229 eV ==== 
 
    |psi|^2 = 0.000
==== e(  53) =    35.71040 eV ==== 
 
    |psi|^2 = 0.001
==== e(  54) =    35.82584 eV ==== 
     psi = 0.001*[#   3]+0.001*[#   7]
    |psi|^2 = 0.004
==== e(  55) =    35.95065 eV ==== 
 
    |psi|^2 = 0.000
==== e(  56) =    35.95260 eV ==== 
     psi = 0.002*[#   4]+0.002*[#   8]
    |psi|^2 = 0.006
==== e(  57) =    36.32838 eV ==== 
 
    |psi|^2 = 0.000
==== e(  58) =    36.75508 eV ==== 
 
    |psi|^2 = 0.001
==== e(  59) =    37.12861 eV ==== 
 
    |psi|^2 = 0.000
==== e(  60) =    37.23767 eV ==== 
 
    |psi|^2 = 0.000

 k =   0.0850000000  0.0490747729  0.0000000000
==== e(   1) =   -21.74037 eV ==== 
     psi = 0.463*[#   1]+0.463*[#   5]+0.022*[#   3]+0.022*[#   7]+0.007*[#   4]
          +0.007*[#   8]
    |psi|^2 = 0.983
==== e(   2) =    -9.78847 eV ==== 
     psi = 0.475*[#   2]+0.475*[#   6]
    |psi|^2 = 0.950
==== e(   3) =    -6.05681 eV ==== 
     psi = 0.361*[#   3]+0.361*[#   7]+0.120*[#   4]+0.120*[#   8]+0.017*[#   1]
          +0.017*[#   5]
    |psi|^2 = 0.997
==== e(   4) =    -5.73314 eV ==== 
     psi = 0.374*[#   4]+0.374*[#   8]+0.125*[#   3]+0.125*[#   7]
    |psi|^2 = 0.997
==== e(   5) =     0.87470 eV ==== 
[...]
    |psi|^2 = 0.000
==== e(  28) =    28.75385 eV ==== 
 
    |psi|^2 = 0.000
==== e(  29) =    29.18195 eV ==== 
 
    |psi|^2 = 0.000
==== e(  30) =    29.50869 eV ==== 
 
    |psi|^2 = 0.000
==== e(  31) =    30.79519 eV ==== 
 
    |psi|^2 = 0.000
==== e(  32) =    32.15420 eV ==== 
 
    |psi|^2 = 0.003
==== e(  33) =    32.33227 eV ==== 
 
    |psi|^2 = 0.002
==== e(  34) =    33.09534 eV ==== 
 
    |psi|^2 = 0.000
==== e(  35) =    33.14267 eV ==== 
 
    |psi|^2 = 0.000
==== e(  36) =    33.14323 eV ==== 
 
    |psi|^2 = 0.000
==== e(  37) =    33.28453 eV ==== 
 
    |psi|^2 = 0.000
==== e(  38) =    33.46733 eV ==== 
 
    |psi|^2 = 0.001
==== e(  39) =    33.52890 eV ==== 
     psi = 0.001*[#   3]+0.001*[#   7]
    |psi|^2 = 0.005
==== e(  40) =    34.10110 eV ==== 
 
    |psi|^2 = 0.001
==== e(  41) =    34.20275 eV ==== 
 
    |psi|^2 = 0.000
==== e(  42) =    34.26217 eV ==== 
 
    |psi|^2 = 0.000
==== e(  43) =    34.27319 eV ==== 
 
    |psi|^2 = 0.001
==== e(  44) =    34.32311 eV ==== 
 
    |psi|^2 = 0.001
==== e(  45) =    34.47375 eV ==== 
     psi = 0.001*[#   4]+0.001*[#   8]
    |psi|^2 = 0.003
==== e(  46) =    34.47391 eV ==== 
 
    |psi|^2 = 0.000
==== e(  47) =    34.53598 eV ==== 
 
    |psi|^2 = 0.000
==== e(  48) =    34.72603 eV ==== 
     psi = 0.002*[#   1]+0.002*[#   5]
    |psi|^2 = 0.004
==== e(  49) =    34.98836 eV ==== 
 
    |psi|^2 = 0.000
==== e(  50) =    35.02099 eV ==== 
 
    |psi|^2 = 0.000
==== e(  51) =    35.28772 eV ==== 
 
    |psi|^2 = 0.000
==== e(  52) =    35.43205 eV ==== 
 
    |psi|^2 = 0.000
==== e(  53) =    35.45823 eV ==== 
 
    |psi|^2 = 0.000
==== e(  54) =    35.61255 eV ==== 
 
    |psi|^2 = 0.000
==== e(  55) =    35.69910 eV ==== 
 
    |psi|^2 = 0.002
==== e(  56) =    35.70032 eV ==== 
 
    |psi|^2 = 0.000
==== e(  57) =    35.71679 eV ==== 
 
    |psi|^2 = 0.000
==== e(  58) =    35.85828 eV ==== 
 
    |psi|^2 = 0.000
==== e(  59) =    35.88716 eV ==== 
 
    |psi|^2 = 0.000
==== e(  60) =    36.38756 eV ==== 
 
    |psi|^2 = 0.000

 k =   0.0086960000  0.0150619138  0.0000000000
==== e(   1) =   -21.90623 eV ==== 
     psi = 0.491*[#   1]+0.491*[#   5]
    |psi|^2 = 0.983
==== e(   2) =    -9.98699 eV ==== 
     psi = 0.473*[#   2]+0.473*[#   6]
    |psi|^2 = 0.945
==== e(   3) =    -5.40215 eV ==== 
     psi = 0.373*[#   4]+0.373*[#   8]+0.125*[#   3]+0.125*[#   7]
    |psi|^2 = 0.997
==== e(   4) =    -5.39168 eV ==== 
     psi = 0.374*[#   3]+0.374*[#   7]+0.125*[#   4]+0.125*[#   8]
    |psi|^2 = 0.997
==== e(   5) =     0.64691 eV ==== 
     psi = 0.002*[#   1]+0.002*[#   5]
    |psi|^2 = 0.005
==== e(   6) =     1.15075 eV ==== 
     psi = 0.006*[#   2]+0.006*[#   6]
    |psi|^2 = 0.012
==== e(   7) =     1.24666 eV ==== 
 
    |psi|^2 = 0.002
==== e(   8) =     2.32326 eV ==== 
     psi = 0.008*[#   2]+0.008*[#   6]
    |psi|^2 = 0.016
==== e(   9) =     2.69178 eV ==== 
     psi = 0.001*[#   1]+0.001*[#   5]
    |psi|^2 = 0.002
==== e(  10) =     4.42392 eV ==== 
     psi = 0.006*[#   2]+0.006*[#   6]
    |psi|^2 = 0.012
==== e(  11) =     5.05513 eV ==== 
     psi = 0.001*[#   1]+0.001*[#   5]
    |psi|^2 = 0.002
==== e(  12) =     6.03570 eV ==== 
     psi = 0.351*[#   4]+0.351*[#   8]+0.117*[#   3]+0.117*[#   7]+0.001*[#   1]
          +0.001*[#   5]
    |psi|^2 = 0.939
==== e(  13) =     6.05573 eV ==== 
     psi = 0.352*[#   3]+0.352*[#   7]+0.118*[#   4]+0.118*[#   8]
    |psi|^2 = 0.940
==== e(  14) =     7.40490 eV ==== 
     psi = 0.003*[#   2]+0.003*[#   6]
    |psi|^2 = 0.007
==== e(  15) =     8.22258 eV ==== 
 
    |psi|^2 = 0.002
==== e(  16) =     9.17080 eV ==== 
     psi = 0.497*[#   2]+0.497*[#   6]
    |psi|^2 = 0.993
==== e(  17) =    10.34834 eV ==== 
     psi = 0.488*[#   1]+0.488*[#   5]
    |psi|^2 = 0.976
==== e(  18) =    11.17500 eV ==== 
     psi = 0.002*[#   2]+0.002*[#   6]
    |psi|^2 = 0.003
==== e(  19) =    12.17230 eV ==== 
 
    |psi|^2 = 0.001
==== e(  20) =    15.67142 eV ==== 
 
    |psi|^2 = 0.002
==== e(  21) =    16.92299 eV ==== 
 
    |psi|^2 = 0.001
==== e(  22) =    20.27405 eV ==== 
 
    |psi|^2 = 0.001
==== e(  23) =    20.83269 eV ==== 
 
    |psi|^2 = 0.001
==== e(  24) =    22.45376 eV ==== 
 
    |psi|^2 = 0.000
==== e(  25) =    25.88171 eV ==== 
 
    |psi|^2 = 0.000
==== e(  26) =    25.90065 eV ==== 
 
    |psi|^2 = 0.000
==== e(  27) =    26.29752 eV ==== 
 
    |psi|^2 = 0.000
==== e(  28) =    28.74843 eV ==== 
 
    |psi|^2 = 0.000
==== e(  29) =    29.25153 eV ==== 
 
    |psi|^2 = 0.000
==== e(  30) =    29.45203 eV ==== 
 
    |psi|^2 = 0.000
==== e(  31) =    30.65010 eV ==== 
 
    |psi|^2 = 0.000
==== e(  32) =    32.40175 eV ==== 
 
    |psi|^2 = 0.002
==== e(  33) =    32.54767 eV ==== 
 
    |psi|^2 = 0.002
==== e(  34) =    33.28934 eV ==== 
 
    |psi|^2 = 0.000
==== e(  35) =    33.40299 eV ==== 
 
    |psi|^2 = 0.000
==== e(  36) =    33.41309 eV ==== 
 
    |psi|^2 = 0.000
==== e(  37) =    33.51485 eV ==== 
     psi = 0.001*[#   3]+0.001*[#   7]
    |psi|^2 = 0.005
==== e(  38) =    33.54786 eV ==== 
 
    |psi|^2 = 0.002
==== e(  39) =    33.55145 eV ==== 
 
    |psi|^2 = 0.000
==== e(  40) =    34.18132 eV ==== 
 
    |psi|^2 = 0.002
==== e(  41) =    34.20755 eV ==== 
 
    |psi|^2 = 0.001
==== e(  42) =    34.22663 eV ==== 
 
    |psi|^2 = 0.000
==== e(  43) =    34.23914 eV ==== 
 
    |psi|^2 = 0.000
==== e(  44) =    34.33800 eV ==== 
 
    |psi|^2 = 0.001
==== e(  45) =    34.52799 eV ==== 
 
    |psi|^2 = 0.002
==== e(  46) =    34.55458 eV ==== 
 
    |psi|^2 = 0.000
==== e(  47) =    34.64939 eV ==== 
 
    |psi|^2 = 0.000
==== e(  48) =    34.82624 eV ==== 
 
    |psi|^2 = 0.002
==== e(  49) =    34.97601 eV ==== 
 
    |psi|^2 = 0.000
==== e(  50) =    35.14708 eV ==== 
 
    |psi|^2 = 0.000
==== e(  51) =    35.15658 eV ==== 
 
    |psi|^2 = 0.000
==== e(  52) =    35.18218 eV ==== 
 
    |psi|^2 = 0.001
==== e(  53) =    35.19661 eV ==== 
 
    |psi|^2 = 0.000
==== e(  54) =    35.36619 eV ==== 
 
    |psi|^2 = 0.000
==== e(  55) =    35.61035 eV ==== 
 
    |psi|^2 = 0.000
==== e(  56) =    35.69155 eV ==== 
 
    |psi|^2 = 0.002
==== e(  57) =    35.70504 eV ==== 
 
    |psi|^2 = 0.000
==== e(  58) =    35.83127 eV ==== 
 
    |psi|^2 = 0.000
==== e(  59) =    35.86500 eV ==== 
 
    |psi|^2 = 0.000
==== e(  60) =    36.33737 eV ==== 
 
    |psi|^2 = 0.000

 k =   0.0057970000  0.0100406985  0.0000000000
==== e(   1) =   -21.90922 eV ==== 
     psi = 0.491*[#   1]+0.491*[#   5]
    |psi|^2 = 0.983
==== e(   2) =    -9.99057 eV ==== 
     psi = 0.473*[#   2]+0.473*[#   6]
    |psi|^2 = 0.945
==== e(   3) =    -5.38973 eV ==== 
     psi = 0.374*[#   4]+0.374*[#   8]+0.125*[#   3]+0.125*[#   7]
    |psi|^2 = 0.997
==== e(   4) =    -5.38503 eV ==== 
     psi = 0.374*[#   3]+0.374*[#   7]+0.125*[#   4]+0.125*[#   8]
    |psi|^2 = 0.997
==== e(   5) =     0.64281 eV ==== 
     psi = 0.002*[#   1]+0.002*[#   5]
    |psi|^2 = 0.005
==== e(   6) =     1.14660 eV ==== 
     psi = 0.006*[#   2]+0.006*[#   6]
    |psi|^2 = 0.012
==== e(   7) =     1.24251 eV ==== 
 
    |psi|^2 = 0.002
==== e(   8) =     2.31914 eV ==== 
     psi = 0.008*[#   2]+0.008*[#   6]
    |psi|^2 = 0.016
==== e(   9) =     2.68767 eV ==== 
     psi = 0.001*[#   1]+0.001*[#   5]
    |psi|^2 = 0.002
==== e(  10) =     4.41983 eV ==== 
     psi = 0.006*[#   2]+0.006*[#   6]
    |psi|^2 = 0.012
==== e(  11) =     5.05112 eV ==== 
     psi = 0.001*[#   1]+0.001*[#   5]
    |psi|^2 = 0.002
==== e(  12) =     6.03373 eV ==== 
     psi = 0.352*[#   4]+0.352*[#   8]+0.117*[#   3]+0.117*[#   7]
    |psi|^2 = 0.940
==== e(  13) =     6.04262 eV ==== 
     psi = 0.352*[#   3]+0.352*[#   7]+0.118*[#   4]+0.118*[#   8]
    |psi|^2 = 0.940
==== e(  14) =     7.40087 eV ==== 
     psi = 0.003*[#   2]+0.003*[#   6]
    |psi|^2 = 0.007
==== e(  15) =     8.21843 eV ==== 
 
    |psi|^2 = 0.002
==== e(  16) =     9.18142 eV ==== 
     psi = 0.497*[#   2]+0.497*[#   6]
    |psi|^2 = 0.994
==== e(  17) =    10.34319 eV ==== 
     psi = 0.488*[#   1]+0.488*[#   5]
    |psi|^2 = 0.976
==== e(  18) =    11.17109 eV ==== 
     psi = 0.002*[#   2]+0.002*[#   6]
    |psi|^2 = 0.003
==== e(  19) =    12.16820 eV ==== 
 
    |psi|^2 = 0.001
==== e(  20) =    15.66780 eV ==== 
 
    |psi|^2 = 0.002
==== e(  21) =    16.91892 eV ==== 
 
    |psi|^2 = 0.001
==== e(  22) =    20.26415 eV ==== 
 
    |psi|^2 = 0.001
==== e(  23) =    20.83025 eV ==== 
 
    |psi|^2 = 0.001
==== e(  24) =    22.44979 eV ==== 
 
    |psi|^2 = 0.000
==== e(  25) =    25.91992 eV ==== 
 
    |psi|^2 = 0.000
==== e(  26) =    25.92709 eV ==== 
 
    |psi|^2 = 0.000
==== e(  27) =    26.30545 eV ==== 
 
    |psi|^2 = 0.000
==== e(  28) =    28.74456 eV ==== 
 
    |psi|^2 = 0.000
==== e(  29) =    29.31444 eV ==== 
 
    |psi|^2 = 0.000
==== e(  30) =    29.41072 eV ==== 
 
    |psi|^2 = 0.000
==== e(  31) =    30.53218 eV ==== 
 
    |psi|^2 = 0.000
==== e(  32) =    32.63583 eV ==== 
 
    |psi|^2 = 0.002
==== e(  33) =    32.73606 eV ==== 
 
    |psi|^2 = 0.001
==== e(  34) =    33.36618 eV ==== 
 
    |psi|^2 = 0.002
==== e(  35) =    33.47962 eV ==== 
     psi = 0.002*[#   3]+0.002*[#   7]
    |psi|^2 = 0.005
==== e(  36) =    33.64960 eV ==== 
 
    |psi|^2 = 0.000
==== e(  37) =    33.67534 eV ==== 
 
    |psi|^2 = 0.000
==== e(  38) =    33.73189 eV ==== 
 
    |psi|^2 = 0.001
==== e(  39) =    33.80714 eV ==== 
 
    |psi|^2 = 0.000
==== e(  40) =    34.03808 eV ==== 
     psi = 0.001*[#   1]+0.001*[#   5]
    |psi|^2 = 0.003
==== e(  41) =    34.19482 eV ==== 
 
    |psi|^2 = 0.000
==== e(  42) =    34.24317 eV ==== 
 
    |psi|^2 = 0.000
==== e(  43) =    34.26412 eV ==== 
 
    |psi|^2 = 0.000
==== e(  44) =    34.32871 eV ==== 
 
    |psi|^2 = 0.001
==== e(  45) =    34.47522 eV ==== 
 
    |psi|^2 = 0.001
==== e(  46) =    34.58965 eV ==== 
 
    |psi|^2 = 0.000
==== e(  47) =    34.73624 eV ==== 
 
    |psi|^2 = 0.000
==== e(  48) =    34.85198 eV ==== 
 
    |psi|^2 = 0.000
==== e(  49) =    34.88017 eV ==== 
 
    |psi|^2 = 0.001
==== e(  50) =    35.00283 eV ==== 
 
    |psi|^2 = 0.000
==== e(  51) =    35.09052 eV ==== 
 
    |psi|^2 = 0.000
==== e(  52) =    35.10060 eV ==== 
 
    |psi|^2 = 0.002
==== e(  53) =    35.19114 eV ==== 
 
    |psi|^2 = 0.000
==== e(  54) =    35.36719 eV ==== 
 
    |psi|^2 = 0.000
==== e(  55) =    35.59556 eV ==== 
 
    |psi|^2 = 0.000
==== e(  56) =    35.68442 eV ==== 
 
    |psi|^2 = 0.002
==== e(  57) =    35.69531 eV ==== 
 
    |psi|^2 = 0.000
==== e(  58) =    35.80228 eV ==== 
 
    |psi|^2 = 0.000
==== e(  59) =    35.85965 eV ==== 
 
    |psi|^2 = 0.000
==== e(  60) =    36.15632 eV ==== 
 
    |psi|^2 = 0.000

 k =   0.0028990000  0.0050212153  0.0000000000
==== e(   1) =   -21.91101 eV ==== 
     psi = 0.492*[#   1]+0.492*[#   5]
    |psi|^2 = 0.983
==== e(   2) =    -9.99272 eV ==== 
     psi = 0.473*[#   2]+0.473*[#   6]
    |psi|^2 = 0.945
==== e(   3) =    -5.38224 eV ==== 
     psi = 0.374*[#   4]+0.374*[#   8]+0.125*[#   3]+0.125*[#   7]
    |psi|^2 = 0.997
==== e(   4) =    -5.38101 eV ==== 
     psi = 0.374*[#   3]+0.374*[#   7]+0.125*[#   4]+0.125*[#   8]
    |psi|^2 = 0.997
==== e(   5) =     0.64035 eV ==== 
     psi = 0.002*[#   1]+0.002*[#   5]
    |psi|^2 = 0.005
==== e(   6) =     1.14412 eV ==== 
     psi = 0.006*[#   2]+0.006*[#   6]
    |psi|^2 = 0.012
==== e(   7) =     1.24003 eV ==== 
 
    |psi|^2 = 0.002
==== e(   8) =     2.31667 eV ==== 
     psi = 0.008*[#   2]+0.008*[#   6]
    |psi|^2 = 0.016
==== e(   9) =     2.68520 eV ==== 
     psi = 0.001*[#   1]+0.001*[#   5]
    |psi|^2 = 0.002
==== e(  10) =     4.41738 eV ==== 
     psi = 0.006*[#   2]+0.006*[#   6]
    |psi|^2 = 0.012
==== e(  11) =     5.04871 eV ==== 
     psi = 0.001*[#   1]+0.001*[#   5]
    |psi|^2 = 0.002
==== e(  12) =     6.03255 eV ==== 
     psi = 0.352*[#   4]+0.352*[#   8]+0.118*[#   3]+0.118*[#   7]
    |psi|^2 = 0.940
==== e(  13) =     6.03475 eV ==== 
     psi = 0.353*[#   3]+0.353*[#   7]+0.118*[#   4]+0.118*[#   8]
    |psi|^2 = 0.940
==== e(  14) =     7.39845 eV ==== 
     psi = 0.003*[#   2]+0.003*[#   6]
    |psi|^2 = 0.007
==== e(  15) =     8.21593 eV ==== 
 
    |psi|^2 = 0.002
==== e(  16) =     9.18782 eV ==== 
     psi = 0.497*[#   2]+0.497*[#   6]
    |psi|^2 = 0.994
==== e(  17) =    10.34011 eV ==== 
     psi = 0.488*[#   1]+0.488*[#   5]
    |psi|^2 = 0.976
==== e(  18) =    11.16875 eV ==== 
     psi = 0.002*[#   2]+0.002*[#   6]
    |psi|^2 = 0.003
==== e(  19) =    12.16574 eV ==== 
 
    |psi|^2 = 0.001
==== e(  20) =    15.66563 eV ==== 
 
    |psi|^2 = 0.002
==== e(  21) =    16.91648 eV ==== 
 
    |psi|^2 = 0.001
==== e(  22) =    20.25819 eV ==== 
 
    |psi|^2 = 0.001
==== e(  23) =    20.82877 eV ==== 
 
    |psi|^2 = 0.001
==== e(  24) =    22.44742 eV ==== 
 
    |psi|^2 = 0.000
==== e(  25) =    25.94184 eV ==== 
 
    |psi|^2 = 0.000
==== e(  26) =    25.94333 eV ==== 
 
    |psi|^2 = 0.000
==== e(  27) =    26.31161 eV ==== 
 
    |psi|^2 = 0.000
==== e(  28) =    28.74224 eV ==== 
 
    |psi|^2 = 0.000
==== e(  29) =    29.36012 eV ==== 
 
    |psi|^2 = 0.000
==== e(  30) =    29.38560 eV ==== 
 
    |psi|^2 = 0.000
==== e(  31) =    30.45307 eV ==== 
 
    |psi|^2 = 0.000
==== e(  32) =    32.83469 eV ==== 
 
    |psi|^2 = 0.001
==== e(  33) =    32.87452 eV ==== 
 
    |psi|^2 = 0.001
==== e(  34) =    33.38241 eV ==== 
     psi = 0.002*[#   4]+0.002*[#   8]
    |psi|^2 = 0.004
==== e(  35) =    33.42609 eV ==== 
     psi = 0.002*[#   3]+0.002*[#   7]
    |psi|^2 = 0.005
==== e(  36) =    33.79765 eV ==== 
     psi = 0.001*[#   1]+0.001*[#   5]
    |psi|^2 = 0.003
==== e(  37) =    33.85665 eV ==== 
 
    |psi|^2 = 0.001
==== e(  38) =    33.93729 eV ==== 
 
    |psi|^2 = 0.001
==== e(  39) =    34.01824 eV ==== 
 
    |psi|^2 = 0.000
==== e(  40) =    34.05790 eV ==== 
 
    |psi|^2 = 0.002
==== e(  41) =    34.16504 eV ==== 
 
    |psi|^2 = 0.000
==== e(  42) =    34.28606 eV ==== 
 
    |psi|^2 = 0.000
==== e(  43) =    34.31323 eV ==== 
 
    |psi|^2 = 0.000
==== e(  44) =    34.32256 eV ==== 
 
    |psi|^2 = 0.001
==== e(  45) =    34.40446 eV ==== 
 
    |psi|^2 = 0.000
==== e(  46) =    34.56690 eV ==== 
 
    |psi|^2 = 0.000
==== e(  47) =    34.59145 eV ==== 
 
    |psi|^2 = 0.001
==== e(  48) =    34.61680 eV ==== 
 
    |psi|^2 = 0.000
==== e(  49) =    34.66383 eV ==== 
 
    |psi|^2 = 0.001
==== e(  50) =    34.88528 eV ==== 
 
    |psi|^2 = 0.000
==== e(  51) =    35.03621 eV ==== 
 
    |psi|^2 = 0.000
==== e(  52) =    35.33035 eV ==== 
 
    |psi|^2 = 0.001
==== e(  53) =    35.37556 eV ==== 
 
    |psi|^2 = 0.001
==== e(  54) =    35.55751 eV ==== 
 
    |psi|^2 = 0.000
==== e(  55) =    35.62351 eV ==== 
 
    |psi|^2 = 0.000
==== e(  56) =    35.66856 eV ==== 
 
    |psi|^2 = 0.002
==== e(  57) =    35.67187 eV ==== 
 
    |psi|^2 = 0.001
==== e(  58) =    35.76129 eV ==== 
 
    |psi|^2 = 0.000
==== e(  59) =    35.86315 eV ==== 
 
    |psi|^2 = 0.000
==== e(  60) =    35.95788 eV ==== 
 
    |psi|^2 = 0.002

 k =   0.0000000000  0.0000000000  0.0000000000
==== e(   1) =   -21.91161 eV ==== 
     psi = 0.492*[#   1]+0.492*[#   5]
    |psi|^2 = 0.983
==== e(   2) =    -9.99344 eV ==== 
     psi = 0.473*[#   2]+0.473*[#   6]
    |psi|^2 = 0.945
==== e(   3) =    -5.37968 eV ==== 
     psi = 0.498*[#   4]+0.498*[#   8]
    |psi|^2 = 0.997
==== e(   4) =    -5.37968 eV ==== 
     psi = 0.498*[#   3]+0.498*[#   7]
    |psi|^2 = 0.997
==== e(   5) =     0.63953 eV ==== 
     psi = 0.002*[#   1]+0.002*[#   5]
    |psi|^2 = 0.005
==== e(   6) =     1.14329 eV ==== 
     psi = 0.006*[#   2]+0.006*[#   6]
    |psi|^2 = 0.012
==== e(   7) =     1.23920 eV ==== 
 
    |psi|^2 = 0.002
==== e(   8) =     2.31585 eV ==== 
     psi = 0.008*[#   2]+0.008*[#   6]
    |psi|^2 = 0.016
==== e(   9) =     2.68438 eV ==== 
     psi = 0.001*[#   1]+0.001*[#   5]
    |psi|^2 = 0.002
==== e(  10) =     4.41656 eV ==== 
     psi = 0.006*[#   2]+0.006*[#   6]
    |psi|^2 = 0.012
==== e(  11) =     5.04791 eV ==== 
     psi = 0.001*[#   1]+0.001*[#   5]
    |psi|^2 = 0.002
==== e(  12) =     6.03215 eV ==== 
     psi = 0.470*[#   3]+0.470*[#   7]
    |psi|^2 = 0.940
==== e(  13) =     6.03215 eV ==== 
     psi = 0.470*[#   4]+0.470*[#   8]
    |psi|^2 = 0.940
==== e(  14) =     7.39765 eV ==== 
     psi = 0.003*[#   2]+0.003*[#   6]
    |psi|^2 = 0.007
==== e(  15) =     8.21510 eV ==== 
 
    |psi|^2 = 0.002
==== e(  16) =     9.18998 eV ==== 
     psi = 0.497*[#   2]+0.497*[#   6]
    |psi|^2 = 0.994
==== e(  17) =    10.33910 eV ==== 
     psi = 0.488*[#   1]+0.488*[#   5]
    |psi|^2 = 0.976
==== e(  18) =    11.16796 eV ==== 
     psi = 0.002*[#   2]+0.002*[#   6]
    |psi|^2 = 0.003
==== e(  19) =    12.16492 eV ==== 
 
    |psi|^2 = 0.001
==== e(  20) =    15.66491 eV ==== 
 
    |psi|^2 = 0.002
==== e(  21) =    16.91566 eV ==== 
 
    |psi|^2 = 0.001
==== e(  22) =    20.25620 eV ==== 
 
    |psi|^2 = 0.001
==== e(  23) =    20.82828 eV ==== 
 
    |psi|^2 = 0.001
==== e(  24) =    22.44663 eV ==== 
 
    |psi|^2 = 0.000
==== e(  25) =    25.94892 eV ==== 
 
    |psi|^2 = 0.000
==== e(  26) =    25.94892 eV ==== 
 
    |psi|^2 = 0.000
==== e(  27) =    26.31393 eV ==== 
 
    |psi|^2 = 0.000
==== e(  28) =    28.74147 eV ==== 
 
    |psi|^2 = 0.000
==== e(  29) =    29.37716 eV ==== 
 
    |psi|^2 = 0.000
==== e(  30) =    29.37716 eV ==== 
 
    |psi|^2 = 0.000
==== e(  31) =    30.42481 eV ==== 
 
    |psi|^2 = 0.000
==== e(  32) =    32.92792 eV ==== 
 
    |psi|^2 = 0.000
==== e(  33) =    32.92792 eV ==== 
 
    |psi|^2 = 0.000
==== e(  34) =    33.38392 eV ==== 
     psi = 0.003*[#   3]+0.003*[#   7]
    |psi|^2 = 0.005
==== e(  35) =    33.38392 eV ==== 
     psi = 0.003*[#   4]+0.003*[#   8]
    |psi|^2 = 0.005
==== e(  36) =    33.78022 eV ==== 
     psi = 0.002*[#   1]+0.002*[#   5]
    |psi|^2 = 0.004
==== e(  37) =    33.94822 eV ==== 
 
    |psi|^2 = 0.001
==== e(  38) =    34.01024 eV ==== 
 
    |psi|^2 = 0.000
==== e(  39) =    34.09670 eV ==== 
 
    |psi|^2 = 0.000
==== e(  40) =    34.26819 eV ==== 
 
    |psi|^2 = 0.000
==== e(  41) =    34.26819 eV ==== 
 
    |psi|^2 = 0.000
==== e(  42) =    34.28323 eV ==== 
 
    |psi|^2 = 0.001
==== e(  43) =    34.28323 eV ==== 
 
    |psi|^2 = 0.001
==== e(  44) =    34.37828 eV ==== 
 
    |psi|^2 = 0.000
==== e(  45) =    34.37828 eV ==== 
 
    |psi|^2 = 0.000
==== e(  46) =    34.38868 eV ==== 
 
    |psi|^2 = 0.002
==== e(  47) =    34.48169 eV ==== 
 
    |psi|^2 = 0.000
==== e(  48) =    34.48169 eV ==== 
 
    |psi|^2 = 0.000
==== e(  49) =    34.56348 eV ==== 
 
    |psi|^2 = 0.000
==== e(  50) =    34.80605 eV ==== 
 
    |psi|^2 = 0.000
==== e(  51) =    35.07937 eV ==== 
 
    |psi|^2 = 0.001
==== e(  52) =    35.51610 eV ==== 
 
    |psi|^2 = 0.000
==== e(  53) =    35.51610 eV ==== 
 
    |psi|^2 = 0.000
==== e(  54) =    35.60784 eV ==== 
     psi = 0.001*[#   3]+0.001*[#   7]
    |psi|^2 = 0.002
==== e(  55) =    35.60784 eV ==== 
     psi = 0.001*[#   4]+0.001*[#   8]
    |psi|^2 = 0.002
==== e(  56) =    35.65943 eV ==== 
 
    |psi|^2 = 0.000
==== e(  57) =    35.65943 eV ==== 
 
    |psi|^2 = 0.000
==== e(  58) =    35.73859 eV ==== 
 
    |psi|^2 = 0.000
==== e(  59) =    35.82654 eV ==== 
     psi = 0.001*[#   1]+0.001*[#   5]
    |psi|^2 = 0.003
==== e(  60) =    35.87517 eV ==== 
 
    |psi|^2 = 0.000

Lowdin Charges: 

     Atom #   1: total charge =   3.9509, s =  0.9111, 
     Atom #   1: total charge =   3.9509, p =  3.0398, pz=  0.9822, px=  1.0300, py=  1.0275, 
     Atom #   2: total charge =   3.9509, s =  0.9111, 
     Atom #   2: total charge =   3.9509, p =  3.0398, pz=  0.9822, px=  1.0300, py=  1.0275, 
     Spilling Parameter:   0.0123
 
     PROJWFC      :      2.38s CPU      2.95s WALL

 
   This run was terminated on:   5: 6: 3  26Jun2024            

=------------------------------------------------------------------------------=
   JOB DONE.
=------------------------------------------------------------------------------=
